# vtk DataFile Version 1.0
results.vtk  3D Unstructured Grid of Triangles
ASCII

DATASET UNSTRUCTURED_GRID
POINTS 82 float
-5.26909 1.42031 -3.47691
-4.94943 3.09234 2.19385
-4.98715 -2.6931 3.06932
-0.695516 0.2154 -0.219876
-3.24304 3.86458 -3.05564
0.861744 2.70754 -5.60067
-1.37655 -0.0781337 -6.25249
-1.83716 -5.25599 1.69216
-2.09069 -0.298162 3.21314
-5.55445 8.12499 -1.76992
-4.87241 8.05706 3.36799
-8.92745 4.50562 1.40334e-07
-2.35242 5.24916 1.16334
-4.78913 -3.73704 -1.674
-1.8623 -4.85434 -3.21323
1.43612 -1.73818 -5.37942
-7.82775 -9.58623e-16 6.22305
-4.3832 -5.36788e-16 8.98819
4.56294 -1.25248 4.31484
4.16948 2.39014 3.90908
1.47133 0.636851 6.01787
3.88662 3.80438 -2.712
6.05359 0.835748 1.26541
0.918755 4.58188 3.86278
-1.89795 3.28567 4.89266
-8.92745 -4.50562 1.40334e-07
-5.04694 -8.12511 2.91734
-5.1906 -4.55367 -7.23337
-9.74778 -1.19376e-15 2.23176
-4.8046 -8.34099 -2.70992
-9.74778 -1.19376e-15 -2.23176
-7.98832 -4.52975 -3.9583
6.98609 -6.0745 3.78087
9.6177 -1.84493 2.02389
8.52292 -5.18448 -0.693488
4.70127 -3.14846 -2.55187
3.79995 -0.92999 9.20302
3.22451 -5.63555 7.60547
0.573322 -4.47183 4.82292
2.91405 -8.59871 4.19172
9.09547 1.60843 3.83214
3.01964 -8.49725 -4.32186
2.8486 -5.71423 0.935565
-0.0752871 -3.88302 -9.21501
-1.39215 -7.54453 -6.4142
3.62979 -5.12892 -7.77938
3.13996 5.85773 -7.47179
3.85179 0.990455 -9.17511
7.21235 2.65758 -6.39682
-0.577409 -3.83414 9.2177
-0.0876349 3.91829 9.19996
3.60917 5.26693 7.69632
-0.284517 -9.82522 1.83957
6.34227 2.00653 7.46655
-0.133064 -9.76657 -2.14392
-1.45809 -7.56455 6.37586
4.81507 -8.76442 0.00110427
-1.65753 8.05379 -5.69113
2.53904 9.18937 -3.01808
-1.11621 9.93311 0.295619
0.711197 5.11664 -1.88034
-5.14476 4.50052 7.29909
-6.12323e-16 -7.4988e-32 -10
-5.40563 4.59316 -7.04855
-0.647898 3.9883 -9.14733
-4.3832 -5.36788e-16 -8.98819
6.49056 -2.00117 -7.33948
6.93049 -5.85672 -4.20323
2.78709 9.00124 3.34811
6.11686 7.911 -0.00319125
6.85622 5.86664 4.30986
-6.12323e-16 -7.4988e-32 10
9.28555 3.68501 -0.446467
9.41186 -0.811829 -3.27992
-8.00375 4.49501 -3.96671
-1.19276 7.79594 6.14822
-5.25214 -4.48767 7.2302
7.07505 -2.5418 6.59416
-8.01112 -4.46097 3.9902
-7.82775 -9.58623e-16 -6.22305
6.61254 6.24743 -4.15257
-7.99845 4.49218 3.9806
CELLS 271 1355
4 0 1 2 3
4 3 4 5 6
4 2 7 3 8
4 9 10 11 12
4 0 3 13 14
4 3 6 5 15
4 16 2 1 8
4 17 16 1 8
4 8 18 19 20
4 3 21 19 22
4 3 8 19 23
4 1 8 12 24
4 25 2 26 13
4 27 0 13 14
4 28 0 2 13
4 27 13 29 14
4 30 31 0 13
4 29 26 7 13
4 32 33 34 35
4 32 18 33 35
4 36 18 37 38
4 37 18 39 38
4 3 8 7 38
4 33 18 40 22
4 41 35 14 42
4 43 44 45 14
4 45 15 14 35
4 3 14 35 42
4 27 43 6 14
4 27 6 0 14
4 3 7 13 14
4 29 13 7 14
4 27 44 43 14
4 46 47 48 5
4 49 8 20 38
4 50 51 20 23
4 2 7 8 38
4 8 20 19 23
4 8 18 20 38
4 49 20 36 38
4 49 2 8 38
4 39 18 32 42
4 52 38 39 42
4 53 19 18 20
4 36 20 18 38
4 52 7 38 42
4 3 38 7 42
4 52 14 7 42
4 54 41 14 42
4 53 19 40 18
4 3 14 15 35
4 3 22 18 35
4 55 52 7 38
4 52 54 14 42
4 32 35 56 42
4 30 11 28 0
4 57 58 59 60
4 17 16 61 1
4 62 6 43 15
4 63 4 0 6
4 63 64 4 6
4 64 62 5 6
4 17 1 61 24
4 11 10 1 12
4 61 1 10 24
4 8 23 12 24
4 3 21 5 60
4 17 8 1 24
4 28 1 16 2
4 64 62 47 5
4 64 65 62 6
4 3 35 18 42
4 3 19 18 22
4 45 66 15 35
4 45 14 41 35
4 41 56 35 42
4 56 34 67 35
4 3 21 22 35
4 3 7 14 42
4 68 69 23 60
4 57 59 12 60
4 46 5 21 60
4 3 5 4 60
4 69 21 23 60
4 69 19 21 22
4 70 40 19 22
4 49 8 71 20
4 3 19 21 23
4 40 18 19 22
4 72 21 73 22
4 57 12 4 60
4 64 5 57 4
4 9 4 57 12
4 63 74 0 4
4 64 5 4 6
4 0 1 3 4
4 0 4 3 6
4 52 56 54 42
4 62 5 6 15
4 47 48 5 15
4 3 14 6 15
4 29 7 52 14
4 62 47 5 15
4 50 75 23 24
4 75 12 59 23
4 3 12 23 60
4 63 9 74 4
4 74 11 0 4
4 57 5 46 60
4 11 1 0 4
4 75 12 23 24
4 10 1 12 24
4 57 4 5 60
4 10 12 75 24
4 2 3 7 13
4 48 21 15 35
4 36 53 18 20
4 70 19 69 22
4 76 17 49 2
4 71 50 20 24
4 51 19 20 23
4 32 18 35 42
4 33 22 73 35
4 69 21 19 23
4 1 3 4 12
4 46 5 48 21
4 46 21 58 60
4 48 73 21 35
4 59 68 23 60
4 59 23 12 60
4 73 22 21 35
4 3 15 5 21
4 71 20 8 24
4 1 8 3 12
4 39 38 18 42
4 33 18 22 35
4 65 0 27 6
4 63 0 65 6
4 66 48 15 35
4 58 21 69 60
4 1 2 3 8
4 48 5 15 21
4 3 23 21 60
4 9 11 4 12
4 8 20 23 24
4 26 2 55 7
4 62 43 47 15
4 0 3 2 13
4 36 77 37 18
4 30 0 28 13
4 25 28 2 13
4 3 12 8 23
4 3 18 8 38
4 49 55 2 38
4 17 71 8 24
4 17 2 16 8
4 27 0 31 13
4 26 2 7 13
4 11 1 4 12
4 55 7 2 38
4 3 19 8 18
4 51 70 19 23
4 3 15 21 35
4 69 21 72 22
4 51 19 53 20
4 28 0 11 1
4 3 4 12 60
4 28 0 1 2
4 52 39 56 42
4 0 6 3 14
4 3 18 38 42
4 37 32 39 18
4 50 23 20 24
4 70 69 19 23
4 29 26 52 7
4 25 26 29 13
4 26 55 52 7
4 25 78 26 2
4 76 55 26 2
4 76 26 78 2
4 29 52 54 14
4 50 75 51 23
4 67 34 73 35
4 63 74 79 0
4 76 16 17 2
4 43 45 47 15
4 41 56 67 35
4 79 31 27 0
4 51 70 53 19
4 32 77 33 18
4 68 58 69 60
4 76 49 55 2
4 36 53 77 18
4 58 80 69 21
4 43 6 14 15
4 65 43 62 6
4 46 80 58 21
4 72 33 40 22
4 36 51 53 20
4 27 29 44 14
4 79 74 30 0
4 27 31 29 13
4 32 34 56 35
4 9 59 10 12
4 28 81 16 1
4 70 40 53 19
4 17 61 50 24
4 81 61 16 1
4 72 73 33 22
4 28 11 81 1
4 70 72 40 22
4 25 29 31 13
4 10 59 75 12
4 30 74 11 0
4 76 78 16 2
4 57 46 58 60
4 30 28 25 13
4 79 30 31 0
4 50 51 36 20
4 28 16 78 2
4 44 41 45 14
4 69 80 72 21
4 63 65 64 6
4 80 48 72 21
4 68 69 70 23
4 25 28 78 2
4 64 46 57 5
4 34 33 73 35
4 9 57 59 12
4 65 79 27 0
4 61 10 75 24
4 55 39 52 38
4 49 37 55 38
4 66 67 73 35
4 11 10 81 1
4 61 75 50 24
4 43 14 45 15
4 49 17 71 8
4 17 50 71 24
4 45 67 66 35
4 63 57 9 4
4 47 45 66 15
4 70 69 72 22
4 29 54 44 14
4 65 27 43 6
4 47 66 48 15
4 63 64 57 4
4 71 50 36 20
4 49 36 37 38
4 74 9 11 4
4 72 48 73 21
4 39 32 56 42
4 37 77 32 18
4 49 2 17 8
4 46 48 80 21
4 53 40 77 18
4 59 58 68 60
4 44 54 41 14
4 49 71 36 20
4 63 79 65 0
4 68 70 51 23
4 55 37 39 38
4 30 25 31 13
4 64 47 46 5
4 45 41 67 35
4 75 68 51 23
4 66 73 48 35
4 77 40 33 18
4 75 59 68 23
4 54 56 41 42
4 81 10 61 1
CELL_TYPES 271
10
10
10
10
10
10
10
10
10
10
10
10
10
10
10
10
10
10
10
10
10
10
10
10
10
10
10
10
10
10
10
10
10
10
10
10
10
10
10
10
10
10
10
10
10
10
10
10
10
10
10
10
10
10
10
10
10
10
10
10
10
10
10
10
10
10
10
10
10
10
10
10
10
10
10
10
10
10
10
10
10
10
10
10
10
10
10
10
10
10
10
10
10
10
10
10
10
10
10
10
10
10
10
10
10
10
10
10
10
10
10
10
10
10
10
10
10
10
10
10
10
10
10
10
10
10
10
10
10
10
10
10
10
10
10
10
10
10
10
10
10
10
10
10
10
10
10
10
10
10
10
10
10
10
10
10
10
10
10
10
10
10
10
10
10
10
10
10
10
10
10
10
10
10
10
10
10
10
10
10
10
10
10
10
10
10
10
10
10
10
10
10
10
10
10
10
10
10
10
10
10
10
10
10
10
10
10
10
10
10
10
10
10
10
10
10
10
10
10
10
10
10
10
10
10
10
10
10
10
10
10
10
10
10
10
10
10
10
10
10
10
10
10
10
10
10
10
10
10
10
10
10
10
10
10
10
10
10
10
10
10
10
10
10
10
10
10
10
10
10
10

POINT_DATA 82

VECTORS displacements float
-nan(ind) -nan(ind) -nan(ind)
-nan(ind) -nan(ind) -nan(ind)
-nan(ind) -nan(ind) -nan(ind)
-nan(ind) -nan(ind) -nan(ind)
-nan(ind) -nan(ind) -nan(ind)
-nan(ind) -nan(ind) -nan(ind)
-nan(ind) -nan(ind) -nan(ind)
-nan(ind) -nan(ind) -nan(ind)
-nan(ind) -nan(ind) -nan(ind)
-nan(ind) -nan(ind) -nan(ind)
-nan(ind) -nan(ind) -nan(ind)
-nan(ind) -nan(ind) -nan(ind)
-nan(ind) -nan(ind) -nan(ind)
-nan(ind) -nan(ind) -nan(ind)
-nan(ind) -nan(ind) -nan(ind)
-nan(ind) -nan(ind) -nan(ind)
-nan(ind) -nan(ind) -nan(ind)
-nan(ind) -nan(ind) -nan(ind)
-nan(ind) -nan(ind) -nan(ind)
-nan(ind) -nan(ind) -nan(ind)
-nan(ind) -nan(ind) -nan(ind)
-nan(ind) -nan(ind) -nan(ind)
-nan(ind) -nan(ind) -nan(ind)
-nan(ind) -nan(ind) -nan(ind)
-nan(ind) -nan(ind) -nan(ind)
-nan(ind) -nan(ind) -nan(ind)
-nan(ind) -nan(ind) -nan(ind)
-nan(ind) -nan(ind) -nan(ind)
-nan(ind) -nan(ind) -nan(ind)
-nan(ind) -nan(ind) -nan(ind)
-nan(ind) -nan(ind) -nan(ind)
-nan(ind) -nan(ind) -nan(ind)
-nan(ind) -nan(ind) -nan(ind)
-nan(ind) -nan(ind) -nan(ind)
-nan(ind) -nan(ind) -nan(ind)
-nan(ind) -nan(ind) -nan(ind)
-nan(ind) -nan(ind) -nan(ind)
-nan(ind) -nan(ind) -nan(ind)
-nan(ind) -nan(ind) -nan(ind)
-nan(ind) -nan(ind) -nan(ind)
-nan(ind) -nan(ind) -nan(ind)
-nan(ind) -nan(ind) -nan(ind)
-nan(ind) -nan(ind) -nan(ind)
-nan(ind) -nan(ind) -nan(ind)
-nan(ind) -nan(ind) -nan(ind)
-nan(ind) -nan(ind) -nan(ind)
-nan(ind) -nan(ind) -nan(ind)
-nan(ind) -nan(ind) -nan(ind)
-nan(ind) -nan(ind) -nan(ind)
-nan(ind) -nan(ind) -nan(ind)
-nan(ind) -nan(ind) -nan(ind)
-nan(ind) -nan(ind) -nan(ind)
-nan(ind) -nan(ind) -nan(ind)
-nan(ind) -nan(ind) -nan(ind)
-nan(ind) -nan(ind) -nan(ind)
-nan(ind) -nan(ind) -nan(ind)
-nan(ind) -nan(ind) -nan(ind)
-nan(ind) -nan(ind) -nan(ind)
-nan(ind) -nan(ind) -nan(ind)
-nan(ind) -nan(ind) -nan(ind)
-nan(ind) -nan(ind) -nan(ind)
-nan(ind) -nan(ind) -nan(ind)
-nan(ind) -nan(ind) -nan(ind)
-nan(ind) -nan(ind) -nan(ind)
-nan(ind) -nan(ind) -nan(ind)
-nan(ind) -nan(ind) -nan(ind)
-nan(ind) -nan(ind) -nan(ind)
-nan(ind) -nan(ind) -nan(ind)
-nan(ind) -nan(ind) -nan(ind)
-nan(ind) -nan(ind) -nan(ind)
-nan(ind) -nan(ind) -nan(ind)
-nan(ind) -nan(ind) -nan(ind)
-nan(ind) -nan(ind) -nan(ind)
-nan(ind) -nan(ind) -nan(ind)
-nan(ind) -nan(ind) -nan(ind)
-nan(ind) -nan(ind) -nan(ind)
-nan(ind) -nan(ind) -nan(ind)
-nan(ind) -nan(ind) -nan(ind)
-nan(ind) -nan(ind) -nan(ind)
-nan(ind) -nan(ind) -nan(ind)
-nan(ind) -nan(ind) -nan(ind)
-nan(ind) -nan(ind) -nan(ind)

SCALARS summary float
LOOKUP_TABLE default
-nan(ind)
-nan(ind)
-nan(ind)
-nan(ind)
-nan(ind)
-nan(ind)
-nan(ind)
-nan(ind)
-nan(ind)
-nan(ind)
-nan(ind)
-nan(ind)
-nan(ind)
-nan(ind)
-nan(ind)
-nan(ind)
-nan(ind)
-nan(ind)
-nan(ind)
-nan(ind)
-nan(ind)
-nan(ind)
-nan(ind)
-nan(ind)
-nan(ind)
-nan(ind)
-nan(ind)
-nan(ind)
-nan(ind)
-nan(ind)
-nan(ind)
-nan(ind)
-nan(ind)
-nan(ind)
-nan(ind)
-nan(ind)
-nan(ind)
-nan(ind)
-nan(ind)
-nan(ind)
-nan(ind)
-nan(ind)
-nan(ind)
-nan(ind)
-nan(ind)
-nan(ind)
-nan(ind)
-nan(ind)
-nan(ind)
-nan(ind)
-nan(ind)
-nan(ind)
-nan(ind)
-nan(ind)
-nan(ind)
-nan(ind)
-nan(ind)
-nan(ind)
-nan(ind)
-nan(ind)
-nan(ind)
-nan(ind)
-nan(ind)
-nan(ind)
-nan(ind)
-nan(ind)
-nan(ind)
-nan(ind)
-nan(ind)
-nan(ind)
-nan(ind)
-nan(ind)
-nan(ind)
-nan(ind)
-nan(ind)
-nan(ind)
-nan(ind)
-nan(ind)
-nan(ind)
-nan(ind)
-nan(ind)
-nan(ind)
