# vtk DataFile Version 1.0
results.vtk  3D Unstructured Grid of Triangles
ASCII

DATASET UNSTRUCTURED_GRID
POINTS 83 float
-1.28571 1 1
-0.877298 0.0423559 1
-1.32972 0.297934 -0.037228
-0.433135 0.405702 0.388497
-0.00179687 0.0427199 1
0.436569 0.00163946 -0.0434665
-0.00126388 -0.477532 0.487819
0.428571 1 1
0.00179687 1 -0.0427199
-0.428571 1 1
-0.872928 1 -0.0427143
-0.436329 0.0530325 -0.0939776
0.428571 -1 1
-0.000805475 -1 -0.042494
0.869968 -0.477333 0.487537
1.81953 0.0369204 1
0.872928 0.0427143 1
1.33884 0.127336 -0.144758
1.81956 -1 -0.0369208
0.873113 -1 -0.0427208
1.28571 -1 1
-2.44291 -0.104201 -0.0569619
-2.47514 0.508667 0.135495
-2.49419 0.259578 -0.574551
-1.81492 0.0357152 -1
-3 -0.333572 -0.458794
-3 0.411737 -0.295884
-2.14286 -1 -1
-2.14286 1 -1
-1.81953 1 -0.0369204
-3 1 0
1.81953 -0.0369205 -1
1.28571 -1 -1
2.41631 0.382749 -0.0896002
2.38583 -0.358046 -0.445374
2.33358 -0.269372 0.302431
3 0.413856 0.296654
3 -0.411737 -0.295884
3 0 1
3 -0.333163 0.458862
2.14286 -1 1
3 -1 0
1.28571 1 1
0.877298 1 -0.0423559
1.81971 1 -0.0369272
-3 -1 1
-3 -1 0
-3 -0.413856 0.296654
-2.50334 -0.190752 0.576848
-3 0 1
-2.14286 1 1
-3 0.333163 0.458862
-1.81971 0.0369272 1
-3 1 -1
-1.81967 -1 -0.0369283
-2.14286 -1 1
1.28571 1 -1
-3 0 -1
-0.877085 -1 -0.0425958
-0.949712 -0.402267 0.511556
-0.428571 -1 1
-1.28571 -1 1
0.872943 -0.0427173 -1
-0.00176707 -0.0425062 -1
0.428571 1 -1
2.14286 1 1
3 1 0
-3 -1 -1
2.14286 1 -1
3 0.333572 -0.458794
-0.428571 -1 -1
-0.879912 -0.0413484 -1
-0.428571 1 -1
0.428571 -1 -1
-1.28571 -1 -1
3 -1 -1
3 0 -1
2.14286 -1 -1
3 1 1
3 -1 1
3 1 -1
-3 1 1
-1.28571 1 -1
CELLS 228 1140
4 0 1 2 3
4 4 3 5 6
4 7 3 8 5
4 0 9 1 3
4 9 7 4 3
4 8 3 10 11
4 12 13 6 14
4 15 14 16 17
4 18 19 14 17
4 16 20 12 14
4 13 5 6 14
4 16 14 5 17
4 2 21 22 23
4 24 21 2 23
4 25 26 21 23
4 24 27 21 23
4 28 29 30 23
4 30 22 26 23
4 13 6 5 11
4 31 32 18 17
4 31 33 17 34
4 17 34 33 35
4 15 33 36 35
4 37 36 33 35
4 38 39 40 35
4 40 39 41 35
4 42 43 44 17
4 15 18 17 35
4 45 46 47 48
4 49 45 47 48
4 50 51 22 48
4 50 22 52 48
4 2 22 21 48
4 53 30 26 23
4 51 21 26 22
4 51 21 22 48
4 52 54 55 48
4 55 54 46 48
4 27 46 54 21
4 46 21 47 48
4 29 2 22 23
4 52 22 2 48
4 50 49 51 48
4 54 21 46 48
4 27 25 21 23
4 31 44 56 17
4 1 9 4 3
4 50 51 30 22
4 57 26 25 23
4 54 58 2 59
4 52 2 1 59
4 4 6 60 59
4 61 60 58 59
4 4 3 6 59
4 58 11 2 59
4 62 5 19 17
4 63 13 5 11
4 3 5 6 11
4 62 43 64 5
4 65 66 36 33
4 27 67 46 25
4 37 33 34 35
4 18 34 17 35
4 31 17 18 34
4 68 31 69 33
4 65 44 66 33
4 65 15 44 33
4 70 71 58 11
4 71 72 10 11
4 68 66 44 33
4 15 17 44 33
4 73 13 19 5
4 72 8 10 11
4 4 7 16 5
4 7 43 16 5
4 71 2 58 11
4 3 11 6 59
4 10 3 2 11
4 58 6 11 59
4 60 6 58 59
4 60 12 13 6
4 74 54 58 2
4 24 54 74 2
4 52 61 54 59
4 61 58 54 59
4 75 41 37 34
4 41 37 34 35
4 76 75 37 34
4 76 77 75 34
4 68 44 31 33
4 76 68 31 69
4 75 77 41 34
4 76 69 31 34
4 31 69 33 34
4 66 69 36 33
4 38 36 39 35
4 78 65 66 36
4 15 18 20 14
4 16 6 5 14
4 15 42 44 17
4 16 12 6 14
4 4 3 7 5
4 65 15 42 44
4 38 15 36 35
4 76 31 77 34
4 52 2 54 48
4 63 62 64 5
4 74 70 71 58
4 24 2 29 23
4 70 63 71 11
4 39 36 37 35
4 69 37 36 33
4 40 18 15 35
4 40 79 41 39
4 52 54 2 59
4 80 66 68 69
4 31 62 32 17
4 74 58 71 2
4 77 31 18 34
4 56 44 43 17
4 15 17 33 35
4 65 36 15 33
4 76 37 69 34
4 52 55 49 48
4 49 55 45 48
4 24 74 71 2
4 28 30 53 23
4 28 57 24 23
4 51 47 21 48
4 2 11 3 59
4 1 4 60 59
4 7 8 43 5
4 52 29 2 22
4 50 81 30 51
4 57 53 26 23
4 82 10 29 2
4 30 29 22 23
4 52 29 0 2
4 52 1 61 59
4 60 13 58 6
4 71 10 2 11
4 24 54 2 21
4 46 25 47 21
4 50 0 52 29
4 28 24 82 29
4 54 2 21 48
4 50 49 81 51
4 70 13 63 11
4 50 52 49 48
4 28 53 57 23
4 49 47 51 48
4 1 60 61 59
4 62 56 64 43
4 50 30 29 22
4 50 29 52 22
4 27 57 25 23
4 76 80 68 69
4 63 64 8 5
4 13 19 5 14
4 73 32 62 19
4 0 29 10 2
4 0 10 9 3
4 52 61 55 54
4 51 47 26 21
4 4 12 60 6
4 13 58 6 11
4 82 29 24 2
4 70 58 13 11
4 8 5 3 11
4 63 8 72 11
4 27 57 67 25
4 32 19 18 17
4 32 62 19 17
4 77 31 32 18
4 20 18 19 14
4 65 38 15 36
4 12 19 13 14
4 9 10 8 3
4 82 71 10 2
4 40 20 15 18
4 16 5 43 17
4 62 43 5 17
4 77 18 41 34
4 63 72 71 11
4 31 56 62 17
4 24 57 27 23
4 63 64 72 8
4 38 40 15 35
4 38 79 40 39
4 15 20 16 14
4 40 41 18 35
4 41 34 18 35
4 73 63 13 5
4 15 18 14 17
4 19 5 14 17
4 0 2 10 3
4 9 8 7 3
4 73 62 63 5
4 64 43 8 5
4 31 44 17 33
4 12 20 19 14
4 82 71 72 10
4 68 69 66 33
4 45 55 46 48
4 7 42 16 43
4 1 2 3 59
4 26 22 21 23
4 82 24 71 2
4 28 24 29 23
4 62 56 43 17
4 41 39 37 35
4 24 27 74 54
4 24 27 54 21
4 30 51 26 22
4 69 37 33 34
4 73 19 62 5
4 63 5 8 11
4 25 26 47 21
4 4 5 16 6
4 1 3 4 59
4 52 0 1 2
4 4 16 12 6
4 27 25 46 21
4 78 38 65 36
4 68 56 31 44
4 15 16 42 17
4 16 43 42 17
4 73 63 70 13
CELL_TYPES 228
10
10
10
10
10
10
10
10
10
10
10
10
10
10
10
10
10
10
10
10
10
10
10
10
10
10
10
10
10
10
10
10
10
10
10
10
10
10
10
10
10
10
10
10
10
10
10
10
10
10
10
10
10
10
10
10
10
10
10
10
10
10
10
10
10
10
10
10
10
10
10
10
10
10
10
10
10
10
10
10
10
10
10
10
10
10
10
10
10
10
10
10
10
10
10
10
10
10
10
10
10
10
10
10
10
10
10
10
10
10
10
10
10
10
10
10
10
10
10
10
10
10
10
10
10
10
10
10
10
10
10
10
10
10
10
10
10
10
10
10
10
10
10
10
10
10
10
10
10
10
10
10
10
10
10
10
10
10
10
10
10
10
10
10
10
10
10
10
10
10
10
10
10
10
10
10
10
10
10
10
10
10
10
10
10
10
10
10
10
10
10
10
10
10
10
10
10
10
10
10
10
10
10
10
10
10
10
10
10
10
10
10
10
10
10
10
10
10
10
10
10
10
10
10
10
10
10
10

POINT_DATA 83

VECTORS displacements float
5.61649e-07 -3.72659e-07 -3.47019e-07
1.90691e-07 -4.43808e-07 -3.63132e-07
5.68786e-08 -3.36548e-07 -2.73099e-07
2.20465e-07 -7.01714e-07 -5.54561e-07
2.68412e-07 -7.97478e-07 -6.3256e-07
-1.60377e-07 -1.17579e-06 -7.78544e-07
-1.99965e-07 -8.93348e-07 -5.29503e-07
7.12824e-07 -9.88164e-07 -9.8466e-07
3.03006e-07 -9.15811e-07 -8.08476e-07
6.90943e-07 -6.26924e-07 -6.34132e-07
2.64848e-07 -5.1572e-07 -4.60485e-07
-3.37878e-08 -6.96411e-07 -5.00013e-07
-9.59535e-08 -8.95936e-07 -6.07156e-07
-5.83216e-07 -1.00349e-06 -4.38009e-07
-1.41597e-07 -1.17529e-06 -8.82501e-07
2.98349e-07 -1.58752e-06 -1.50786e-06
3.56773e-07 -1.1232e-06 -1.01676e-06
-1.90404e-07 -1.5963e-06 -1.31954e-06
-7.0085e-07 -1.70894e-06 -1.32804e-06
-6.7102e-07 -1.36786e-06 -8.40917e-07
-1.28853e-07 -1.3323e-06 -1.05125e-06
-3.4926e-08 -1.66955e-08 -7.90506e-08
5.15027e-08 -6.9728e-08 -6.21608e-08
-9.61965e-08 -2.60916e-08 -4.78894e-08
-2.14303e-07 -1.49411e-07 -1.9972e-07
-2.95431e-16 -2.95431e-16 -2.95431e-16
-2.95431e-16 -2.95431e-16 -2.95431e-16
-2.437e-07 -1.29419e-07 -1.66757e-07
2.00715e-08 -7.47614e-08 -7.4508e-08
1.68877e-07 -2.16103e-07 -1.70031e-07
-2.95431e-16 -2.95431e-16 -2.95431e-16
-6.99455e-07 -2.07087e-06 -1.56442e-06
-1.15753e-06 -1.7486e-06 -1.10945e-06
-2.23839e-08 -2.13401e-06 -2.00681e-06
-5.24564e-07 -2.16203e-06 -1.78902e-06
-1.63215e-07 -1.95746e-06 -1.76407e-06
2.06394e-07 -2.26351e-06 -2.2553e-06
-4.50824e-07 -2.42436e-06 -2.05613e-06
3.85144e-07 -2.09006e-06 -2.23603e-06
-8.21517e-08 -2.24118e-06 -2.0118e-06
-1.57827e-07 -1.73223e-06 -1.53976e-06
-6.39916e-07 -2.37344e-06 -1.88298e-06
7.78839e-07 -1.31894e-06 -1.50321e-06
2.82126e-07 -1.36294e-06 -1.26657e-06
2.77727e-07 -1.81282e-06 -1.74301e-06
-2.95431e-16 -2.95431e-16 -2.95431e-16
-2.95431e-16 -2.95431e-16 -2.95431e-16
-2.95431e-16 -2.95431e-16 -2.95431e-16
-2.0033e-09 -4.43071e-08 -7.43676e-08
-2.95431e-16 -2.95431e-16 -2.95431e-16
2.29766e-07 -1.32875e-07 -1.76827e-07
-2.95431e-16 -2.95431e-16 -2.95431e-16
1.42613e-07 -1.63522e-07 -2.0078e-07
-2.95431e-16 -2.95431e-16 -2.95431e-16
-2.6336e-07 -1.54397e-07 -1.67199e-07
-5.56903e-08 -6.02502e-08 -5.94227e-08
-9.53118e-08 -1.80257e-06 -1.49102e-06
-2.95431e-16 -2.95431e-16 -2.95431e-16
-4.6813e-07 -5.36116e-07 -3.30054e-07
-1.08563e-07 -4.24712e-07 -3.22681e-07
-1.88722e-07 -6.08548e-07 -3.65078e-07
-1.59689e-07 -2.8445e-07 -1.98682e-07
-6.6503e-07 -1.52693e-06 -1.13614e-06
-4.55001e-07 -1.07128e-06 -6.36756e-07
-8.90951e-08 -1.22227e-06 -9.95301e-07
8.27632e-07 -1.72754e-06 -1.97173e-06
2.97706e-07 -2.34706e-06 -2.41658e-06
-2.95431e-16 -2.95431e-16 -2.95431e-16
-1.25782e-07 -2.18865e-06 -1.91508e-06
-1.87834e-07 -2.49945e-06 -2.21181e-06
-8.30268e-07 -8.60841e-07 -4.20551e-07
-3.1747e-07 -5.62022e-07 -4.13471e-07
-1.72305e-08 -7.96047e-07 -6.26607e-07
-1.06998e-06 -1.35638e-06 -6.40535e-07
-5.96633e-07 -3.83007e-07 -3.11466e-07
-1.14362e-06 -2.75554e-06 -1.88908e-06
-5.68427e-07 -2.64581e-06 -2.19736e-06
-1.19233e-06 -2.24763e-06 -1.44662e-06
8.31328e-07 -2.09695e-06 -2.47137e-06
-1.40274e-07 -2.07473e-06 -1.93998e-06
-1.34041e-07 -2.57176e-06 -2.35121e-06
-2.95431e-16 -2.95431e-16 -2.95431e-16
4.81503e-08 -3.75235e-07 -3.37245e-07

SCALARS summary float
LOOKUP_TABLE default
7.5812e-07
6.04313e-07
4.3713e-07
9.21165e-07
1.05269e-06
1.41927e-06
1.05756e-06
1.56657e-06
1.25863e-06
1.12808e-06
7.40377e-07
8.57988e-07
1.08653e-06
1.24055e-06
1.47653e-06
2.20972e-06
1.5565e-06
2.07981e-06
2.27494e-06
1.74024e-06
1.70199e-06
8.80202e-08
1.0667e-07
1.1058e-07
3.28843e-07
5.11701e-16
5.11701e-16
3.22407e-07
1.07441e-07
3.22692e-07
5.11701e-16
2.68796e-06
2.37242e-06
2.92947e-06
2.85484e-06
2.64012e-06
3.20195e-06
3.21067e-06
3.08489e-06
3.0128e-06
2.32301e-06
3.0965e-06
2.14613e-06
1.88186e-06
2.53013e-06
5.11701e-16
5.11701e-16
5.11701e-16
8.65891e-08
5.11701e-16
3.18929e-07
5.11701e-16
2.95619e-07
5.11701e-16
3.48069e-07
1.01304e-07
2.34126e-06
5.11701e-16
7.84539e-07
5.44324e-07
7.34322e-07
3.81951e-07
2.01608e-06
1.32669e-06
1.57876e-06
2.74901e-06
3.38189e-06
5.11701e-16
2.91093e-06
3.34284e-06
1.26778e-06
7.6656e-07
1.01322e-06
1.84253e-06
7.74388e-07
3.53121e-06
3.48594e-06
2.92681e-06
3.34604e-06
2.84388e-06
3.48713e-06
5.11701e-16
5.06807e-07
