# vtk DataFile Version 1.0
results.vtk  3D Unstructured Grid of Triangles
ASCII

DATASET UNSTRUCTURED_GRID
POINTS 34 float
0.46426 0.46426 5
-0.460498 -0.545328 0.248223
-1.90674 2.03382 1.62771
1.62307 1.60767 1.59153
0.46426 5 -0.46426
1.712 1.63471 -1.86653
5 -8.88178e-16 5
5 -0.46426 -0.46426
1.9779 -2.07924 2.07763
5 5 5
5 5 8.88178e-16
-5 0.46426 -0.46426
-2.24225 -2.24968 -2.18786
-1.64404 1.75412 -1.77371
2.06767 -2.04117 -2.52593
-8.88178e-16 5 -5
5 5 -5
5 8.88178e-16 -5
0.46426 -0.46426 -5
-8.88178e-16 -5 5
8.88178e-16 -5 -5
-0.46426 -5 -0.46426
5 -5 -5
5 -5 8.88178e-16
-5 -8.88178e-16 -5
-5 5 -5
-5 5 8.88178e-16
-5 8.88178e-16 5
-5 -5 8.88178e-16
-5 5 5
8.88178e-16 5 5
5 -5 5
-5 -5 -5
-5 -5 5
CELLS 89 445
4 0 1 2 3
4 4 3 1 5
4 6 3 7 8
4 9 10 6 3
4 7 1 3 5
4 0 1 3 8
4 11 1 12 13
4 7 8 1 14
4 15 5 4 13
4 16 15 17 5
4 16 10 4 5
4 18 17 5 14
4 17 7 10 5
4 0 19 1 8
4 20 12 21 14
4 17 7 5 14
4 18 22 17 14
4 20 22 18 14
4 21 8 23 14
4 18 1 12 14
4 21 1 8 14
4 24 11 12 13
4 24 25 11 13
4 25 26 11 13
4 26 2 11 13
4 27 28 11 1
4 11 2 1 13
4 18 5 1 14
4 0 1 27 2
4 27 26 29 2
4 30 27 29 2
4 26 4 2 13
4 21 12 1 14
4 27 1 11 2
4 6 23 31 8
4 19 31 23 8
4 23 8 7 14
4 6 7 23 8
4 4 2 1 3
4 28 11 1 12
4 10 7 3 5
4 20 18 12 14
4 20 32 21 12
4 32 28 21 12
4 24 11 28 12
4 4 5 1 13
4 20 23 22 14
4 16 4 15 5
4 10 3 4 5
4 19 21 1 8
4 22 23 7 14
4 19 23 21 8
4 15 4 26 13
4 9 30 10 3
4 30 29 26 2
4 0 3 6 8
4 15 26 25 13
4 7 3 1 8
4 30 4 10 3
4 9 0 30 3
4 0 19 27 1
4 20 24 32 12
4 18 24 12 13
4 30 2 4 3
4 18 5 15 13
4 16 17 10 5
4 20 21 23 14
4 19 21 28 1
4 18 17 15 5
4 0 2 30 3
4 18 12 1 13
4 24 28 32 12
4 6 10 7 3
4 6 31 19 8
4 22 7 17 14
4 19 28 27 1
4 19 33 27 28
4 0 6 19 8
4 21 28 1 12
4 9 6 0 3
4 7 1 5 14
4 18 15 24 13
4 20 18 24 12
4 4 1 2 13
4 0 27 30 2
4 15 25 24 13
4 30 26 4 2
4 27 11 26 2
4 18 1 5 13
CELL_TYPES 89
10
10
10
10
10
10
10
10
10
10
10
10
10
10
10
10
10
10
10
10
10
10
10
10
10
10
10
10
10
10
10
10
10
10
10
10
10
10
10
10
10
10
10
10
10
10
10
10
10
10
10
10
10
10
10
10
10
10
10
10
10
10
10
10
10
10
10
10
10
10
10
10
10
10
10
10
10
10
10
10
10
10
10
10
10
10
10
10
10

POINT_DATA 34

VECTORS displacements float
1.06669e-08 -2.13448e-08 9.53498e-09
-1.70587e-08 -3.50397e-08 -1.71802e-08
-4.02399e-08 -4.28737e-08 1.75868e-08
-7.46082e-08 -3.12617e-08 4.01329e-08
-7.27742e-08 2.38318e-08 1.01229e-08
-3.19622e-08 1.34369e-08 3.76058e-08
-1.48092e-09 3.20138e-08 2.82813e-08
2.8447e-08 3.05803e-08 4.39328e-08
-2.64795e-08 -4.109e-08 -1.71104e-08
-5.42569e-08 3.51557e-08 2.36013e-08
-1.6302e-07 -3.07452e-09 1.11814e-07
2.54551e-11 2.54551e-11 2.54551e-11
3.47098e-08 -1.50774e-08 -2.34381e-08
-1.64936e-08 -2.67712e-08 2.73894e-08
5.72062e-08 1.66702e-08 2.7472e-09
-5.07132e-08 1.32544e-08 6.52009e-08
-7.18344e-08 8.51294e-08 8.78095e-08
5.70619e-08 6.39911e-08 5.66964e-08
2.77116e-08 2.13671e-08 -5.55938e-10
-2.36888e-08 -2.00912e-08 -2.38967e-08
3.30368e-08 2.17499e-08 -4.9596e-08
-9.61907e-09 -2.54364e-08 -6.54229e-08
8.40041e-08 5.65537e-08 -5.20275e-08
4.47756e-08 4.54424e-08 -2.62366e-09
2.54551e-11 2.54551e-11 2.54551e-11
2.54551e-11 2.54551e-11 2.54551e-11
2.54551e-11 2.54551e-11 2.54551e-11
2.54551e-11 2.54551e-11 2.54551e-11
2.54551e-11 2.54551e-11 2.54551e-11
2.54551e-11 2.54551e-11 2.54551e-11
-2.81475e-08 -2.50327e-08 -7.4772e-09
1.85477e-08 6.07507e-08 -1.60769e-08
2.54551e-11 2.54551e-11 2.54551e-11
2.54551e-11 2.54551e-11 2.54551e-11

SCALARS summary float
LOOKUP_TABLE default
2.56963e-08
4.25904e-08
6.13735e-08
9.03014e-08
7.72432e-08
5.11501e-08
4.27423e-08
6.06175e-08
5.17911e-08
6.88241e-08
1.97705e-07
4.40896e-11
4.45134e-08
4.17003e-08
5.96489e-08
8.3658e-08
1.41837e-07
1.02788e-07
3.49971e-08
3.91901e-08
6.3437e-08
7.08497e-08
1.1385e-07
6.38494e-08
4.40896e-11
4.40896e-11
4.40896e-11
4.40896e-11
4.40896e-11
4.40896e-11
3.84034e-08
6.55219e-08
4.40896e-11
4.40896e-11
