# vtk DataFile Version 1.0
results.vtk  3D Unstructured Grid of Triangles
ASCII

DATASET UNSTRUCTURED_GRID
POINTS 27 float
1.00031 -1 1
1.00031 -1 -1
1.00031 1 1
2.00086 0.000154804 -0.00108477
3.00093 1 1
1.00031 1 -1
3.00093 1 -1
4.02222 0.0208835 -0.0209259
3.00093 -1 -1
5 -1 1
5 1 1
5 -1 -1
3.00093 -1 1
-3.00093 -1 1
-3.00093 1 -1
-3.00093 -1 -1
-4.02137 0.0204397 0.0208835
-5 -1 1
-5 -1 -1
-5 1 -1
5 1 -1
-3.00093 1 1
-1.00031 -1 -1
-5 1 1
-1.00031 -1 1
-1.00031 1 -1
-1.00031 1 1
CELLS 47 235
4 0 1 2 3
4 4 2 5 3
4 4 3 6 7
4 8 5 1 3
4 6 3 8 7
4 9 10 11 7
4 12 9 11 7
4 10 4 6 7
4 12 3 4 7
4 12 11 8 7
4 12 8 3 7
4 13 14 15 16
4 17 18 19 16
4 15 19 18 16
4 15 14 19 16
4 13 15 17 16
4 20 6 11 7
4 10 20 11 7
4 10 6 20 7
4 21 13 17 16
4 13 22 15 14
4 21 17 23 16
4 24 13 25 22
4 21 26 13 14
4 21 14 13 16
4 21 23 19 16
4 17 15 18 16
4 11 6 8 7
4 4 5 6 3
4 0 24 2 1
4 24 2 1 25
4 12 4 10 7
4 12 0 4 3
4 13 26 25 14
4 24 26 2 25
4 24 13 26 25
4 12 10 9 7
4 12 8 0 3
4 6 5 8 3
4 21 19 14 16
4 24 25 1 22
4 13 25 22 14
4 2 5 1 25
4 2 1 5 3
4 23 17 19 16
4 0 2 4 3
4 0 8 1 3
CELL_TYPES 47
10
10
10
10
10
10
10
10
10
10
10
10
10
10
10
10
10
10
10
10
10
10
10
10
10
10
10
10
10
10
10
10
10
10
10
10
10
10
10
10
10
10
10
10
10
10
10

POINT_DATA 27

VECTORS displacements float
1.54493e-06 4.05006e-06 -1.63666e-06
5.50014e-07 3.66749e-06 -1.56971e-06
-4.56702e-07 3.98416e-06 -1.93085e-06
6.79227e-08 4.99988e-06 -2.31635e-06
-5.10323e-07 6.4318e-06 -3.02079e-06
-1.46417e-06 3.63099e-06 -2.08157e-06
-1.61945e-06 6.04634e-06 -3.06105e-06
5.90137e-08 7.55781e-06 -3.49498e-06
6.90055e-07 5.95689e-06 -2.5563e-06
1.87729e-06 8.92705e-06 -3.86092e-06
-4.58003e-07 8.8705e-06 -4.28115e-06
6.71261e-07 8.48947e-06 -3.70567e-06
1.78832e-06 6.56378e-06 -2.61632e-06
8.37072e-07 6.01706e-07 -1.24742e-07
-8.60213e-07 6.29072e-07 -3.01643e-07
2.02379e-07 5.35974e-07 -2.47338e-08
8.59711e-09 1.78067e-07 2.77127e-08
8.3564e-12 8.3564e-12 8.3564e-12
8.3564e-12 8.3564e-12 8.3564e-12
8.3564e-12 8.3564e-12 8.3564e-12
-1.58481e-06 8.38737e-06 -4.25514e-06
-1.92211e-07 5.28906e-07 -9.20787e-08
3.14573e-07 1.92196e-06 -7.75702e-07
8.3564e-12 8.3564e-12 8.3564e-12
1.15668e-06 2.08358e-06 -8.27889e-07
-1.11828e-06 1.85221e-06 -9.43821e-07
-3.76484e-07 1.99833e-06 -9.84245e-07

SCALARS summary float
LOOKUP_TABLE default
4.6334e-06
4.02704e-06
4.45087e-06
5.5108e-06
7.12416e-06
4.43405e-06
6.96785e-06
8.32699e-06
6.51885e-06
9.90571e-06
9.86021e-06
9.28728e-06
7.28878e-06
1.03841e-06
1.10756e-06
5.73444e-07
1.80415e-07
1.44737e-11
1.44737e-11
1.44737e-11
9.5376e-06
5.70233e-07
2.09633e-06
1.44737e-11
2.52282e-06
2.36052e-06
2.25916e-06
