# vtk DataFile Version 1.0
results.vtk  3D Unstructured Grid of Triangles
ASCII

DATASET UNSTRUCTURED_GRID
POINTS 740 float
0.694791 0.130463 2.67515
0.225712 0.71149 2.70322
0.347303 0.209756 2.0606
0.263615 -0.0874338 2.60622
-0.573873 0.370494 2.38629
-0.244612 0.0245577 2.97037
-0.594811 -0.425003 2.47414
-0.0935819 -0.758035 2.9785
-0.200494 -0.185798 1.97956
0.104183 -0.747625 2.35055
0.604534 -0.413019 2.31248
1.08379 -0.0844404 2.15003
1.1209 -0.736636 1.77837
0.72664 -0.011606 1.75606
0.968191 -0.35486 3.17974
0.266057 -0.112779 3.23609
1.50654 -0.263447 2.48711
1.24273 -0.723289 2.58531
0.606529 -0.864414 2.43427
0.207739 0.643877 3.30027
-0.986264 -0.872657 2.13769
-0.747426 -0.413591 1.48463
-0.972097 -0.0203838 2.1093
-0.443461 -0.691782 1.9511
0.399686 -0.63701 1.7221
-0.651919 -1.27156 2.56372
-0.617297 -1.37894 2.04011
0.109326 -1.38663 1.98402
-0.144554 -1.35474 2.486
-0.946004 0.382743 -2.84653
-0.542912 -0.213622 -2.49329
-0.393139 0.0538712 -2.94859
-0.19885 0.271648 -2.29471
-0.330074 0.754352 -2.57871
-1.20306 0.633643 -2.30496
-0.550916 0.638839 -2.00004
0.0114918 0.03363 -1.58621
-0.727178 0.100204 -1.94732
-0.198238 -0.262245 -2.10802
1.35687 0.382114 -2.38356
0.473969 0.266599 -2.20996
0.865024 0.994976 -2.4312
0.449942 0.603803 -2.60875
0.167619 0.500254 -2.98977
0.905056 0.528284 -3.01873
0.460242 -0.0694602 -3.0767
0.40519 0.951767 -3.09234
0.852914 0.109146 -2.62511
0.0374554 1.46975 -2.66085
0.802641 0.559414 -3.48241
0.967043 -0.128033 -3.38609
0.329633 0.297896 -3.72017
0.183769 0.957993 -3.55798
-0.182807 0.232551 -3.62832
-0.209786 0.787909 -4.07758
0.0289386 0.468602 -4.53742
0.0570483 -0.0587407 -4.09489
0.744078 0.124335 -3.99175
0.0680859 -0.302104 -3.52473
0.477192 0.233558 -4.52208
0.253089 -0.1093 1.30487
-0.0968805 -0.69125 1.42846
-0.432684 0.0526357 1.15023
-0.864814 -0.396795 0.829579
-0.650254 0.294086 0.416758
-0.122562 -0.0142581 0.670731
-0.40338 -0.861227 0.970655
-0.998596 0.391814 1.17877
-0.73732 0.118643 1.62038
1.42315 -0.513016 -2.92054
0.596692 -0.806694 -3.35643
1.13682 -1.01387 -2.91774
0.756014 -0.428452 -2.74998
1.01491 -0.990726 -2.27668
1.46083 -0.2004 -2.39642
0.794215 -0.286883 -2.20462
-0.0926429 -0.417303 4.55884
0.160689 -0.959442 4.56322
-0.320628 -0.906835 3.979
0.220271 -0.428342 4.0618
0.657557 -0.817902 4.54725
0.22686 -1.06367 3.98269
-0.106956 -0.0334144 3.90676
0.324916 0.393636 4.0815
0.271692 -0.617279 3.58797
0.85072 -0.758022 3.91835
0.4144 -0.0773168 4.55215
-0.0129845 -0.5932 0.487003
0.0952726 -1.19842 0.392217
-0.634305 -0.707705 0.240186
-0.387203 -0.788609 -0.256454
-1.14085 -0.766761 -0.0587396
-0.625113 -0.175689 0.171015
-0.917635 -0.333542 -0.291646
0.347335 1.96961 3.71613
-0.0133086 1.99996 3.05396
0.684073 1.87937 3.0742
0.467345 1.39455 3.604
0.495202 -1.13161 3.02673
1.18762 -1.0211 2.87645
0.930811 -1.08312 3.48626
1.52653 -0.166804 3.44314
1.40183 0.0764182 3.00152
0.844865 0.208392 3.58707
1.29628 -0.730428 3.55034
0.951165 -0.27334 3.96627
0.130593 -0.158829 -2.50823
0.155054 0.816771 -2.21519
-0.238319 0.813559 -2.96773
-0.68404 -1.87939 4.35807
1.22465e-16 -2 4.35807
-0.347296 -1.96962 3.71614
-0.290656 -1.52094 4.1291
-0.531415 -0.765332 -2.91605
0.645083 -0.343367 0.894605
0.285801 0.369213 0.751075
0.604324 0.471284 1.18163
2 -8.7523e-06 2.43227
1.96962 0.347283 1.79034
1.96961 -0.347305 1.79034
1.32603 0.185707 1.78959
-0.186322 0.647444 1.55137
0.789764 0.184241 0.651123
0.669452 0.248868 -0.105563
0.610872 0.735567 0.398906
0.0947914 1.19858 0.39238
0.0948764 0.598697 0.194897
-0.27403 0.777508 2.98488
-1.56743 1.24224 3.68285
-1.60946 1.18728 2.87269
-1.20732 1.59448 3.17915
-1.28061 0.757735 3.49986
-0.034822 1.48681 2.87045
0.53842 1.31696 2.9201
0.807103 0.440489 3.07938
0.124244 0.827152 2.14806
0.431994 0.628932 1.69522
0.559339 1.31241 0.591102
0.49695 -0.612833 0.295415
0.500059 -0.913823 1.03804
0.336331 0.563186 -1.67244
1.20541 0.706587 -1.91459
0.684029 1.20683 -1.83402
-1.49312 0.0188008 2.49064
-1.40604 -0.50169 2.0448
-1.32263 -0.452752 2.65743
0.900744 0.174749 -1.95334
0.691626 -0.50312 -1.68041
0.33314 -0.626238 -2.27001
-0.371524 0.654249 -1.00357
0.120692 -0.377489 -1.17792
0.353868 0.33357 -1.02901
0.791206 0.0316122 -1.19249
0.347053 0.0303232 -0.597428
0.0305666 0.81771 -0.518206
-0.192472 0.0625401 -0.595159
-0.0749746 0.879135 -1.5601
1.06096 0.127354 4.54181
1.44799 0.75186 4.60542
1.4512 0.52692 4.10155
0.929119 0.547844 4.06884
0.321918 0.943445 4.02332
1.31235 0.749814 3.55679
1.51 0.26515 3.52141
0.96328 1.12646 3.53381
1.19478 0.984257 4.10395
-0.533032 -0.33643 -4.01539
-0.786084 0.060553 -3.48858
-1.30225 -0.485404 -3.68445
-0.726426 -0.679411 -3.37254
-1.45309 0.462446 -3.60207
-1.13237 0.941406 -3.31625
-0.892929 0.281444 -4.07768
-0.609693 0.838868 -3.50247
-1.53864 0.143054 -3.91909
6.93889e-05 1.39326 5
0.328477 0.934274 4.57093
-0.151918 1.10055 4.57876
0.208841 1.4952 4.0922
-0.347248 1.96962 3.71613
-0.67419 1.88294 3.06477
-0.491074 1.44287 3.43979
-0.553868 1.4356 4.13565
-0.938952 1.26228 4.628
-0.365512 1.62925 4.64695
0.0730171 0.441872 4.55519
-1.00809 -1.04512 1.38569
-0.447266 -1.27695 1.44011
0.0652994 -1.33449 -1.11536
-0.284584 -0.578554 -1.52981
-0.594436 -1.14788 -1.45877
-0.351937 -0.641799 -0.92291
-1.00445 -0.724238 -0.694815
-1.02916 -0.874322 -1.38206
-0.594569 -1.14709 -0.714108
0.144184 -0.266982 -0.180767
0.652376 -0.679604 -0.957302
-0.736143 0.094502 -0.592812
-0.231598 0.559014 0.853188
-0.999949 1.73208 5
-0.347248 1.96962 5
-0.455343 1.2514 5
1.28559 1.53207 3.0742
1.00003 1.73204 2.43227
1.5321 1.28556 2.43227
1.07313 1.05943 2.93903
-1.51414 -0.292928 -0.623069
-0.502754 1.93578 2.33508
-1.38079 0.0114873 0.0073595
-1.0194 0.44735 -0.0615236
-0.741681 0.222377 -1.20073
1.36625 -0.193981 -1.69893
1.96961 0.347305 -1.79034
1.4531 0.30443 -1.14675
-1.05899 1.11855 -1.82149
-0.604741 1.13413 -1.38946
-1.11832 1.04198 -1.0139
-1.30139 0.681992 -1.30576
0.15546 1.4248 -1.02774
0.652745 1.13926 -1.12628
-0.180829 1.45524 -1.79835
-0.500532 0.80874 -0.348901
-1.51597 0.143971 0.498562
-1.41869 -0.622442 0.687799
0.347335 1.96961 5
0.684073 1.87937 4.35807
1.00003 1.73204 5
0.670358 1.39305 4.62075
0.531534 -0.782624 -0.240078
0.88259 -0.00155252 -0.59978
0.55291 0.633916 -0.486403
0.530359 -1.32255 -1.51873
-0.791617 -1.27485 4.12306
-0.543809 -0.788631 4.54285
-0.585303 -0.503793 4.08642
-0.97822 -0.242695 -1.28499
-0.596166 -1.90908 1.45657
-0.0336619 -1.99972 1.80292
0.0648054 -1.99895 1.11422
0.559619 -1.32847 3.51786
-0.380712 -0.077516 3.5307
-0.186417 -0.728217 3.59952
0.078921 -1.313 3.69131
1.87939 -0.684027 -2.43227
1.01907 -0.990608 -1.63918
-1.36686 -0.0256218 1.45413
-1.4132 0.507239 1.66447
-0.727361 0.652 1.75674
1.46979 -0.0667187 1.37933
1.38608 -0.414672 0.68531
1.24981 -0.608241 1.22973
0.709511 1.27719 2.14406
1.24816 1.56272 1.74493
1.19583 0.931639 2.46775
1.73206 0.999984 1.79034
1.0572 0.955492 1.69823
1.73206 0.999987 3.0742
1.87939 0.684027 2.43227
1.42898 0.314686 2.4673
0.806663 0.605388 2.32115
-0.922856 0.873347 2.90784
-1.46992 0.42034 2.85899
-0.872682 -0.178624 2.83417
1.96961 0.3473 -3.07421
2 8.7523e-06 -2.43227
1.39384 0.0931129 -3.02805
-0.730313 -0.651708 3.44772
-0.951989 0.116586 3.35341
4.42745e-05 2 4.35807
-0.758675 0.194374 4.10335
-1.00318 0.377542 3.77743
-1.05272 -0.0847599 3.88951
-0.619488 0.611624 3.55697
-1.24182 -0.821408 3.20209
-1.49955 0.0459942 3.2415
-1.51661 0.265028 3.75168
-1.16051 1.62887 1.07143
-0.594462 1.90961 0.714286
-0.596209 1.90907 1.45645
-0.460773 1.29062 1.49374
-1.17927 -0.890726 4.12636
-0.972805 -0.202196 4.55696
-1.35681 -0.379816 4.59982
-0.388414 -0.00274093 4.53631
-1.61073 1.18555 0.714286
-1.16051 1.62887 0.357143
-1.02687 1.04099 0.630451
-0.379187 0.822102 3.97741
-0.108469 -0.944899 -3.48703
-0.819466 -1.1919 -3.53844
-0.498238 -1.01423 -4.01242
-1.08764 -0.944458 -3.92796
-0.0485693 -1.51445 -3.48143
0.146775 -0.779959 -3.99549
0.149208 -1.46737 -4.05799
-0.657844 -0.765739 -4.58661
0.639601 -1.89497 1.7434
-0.683989 1.8794 4.35807
-0.162403 -1.05324 -4.54684
-0.0148247 -1.99995 3.05394
0.4254 -1.40307 2.46836
-0.173132 -1.32807 3.04381
0.00504034 -0.664902 -3.03729
-0.760504 1.32674 -2.97622
-0.985702 0.956287 -2.89721
-0.587339 1.37756 -2.55835
1 -1.73205 2.43228
0.897083 -1.21442 2.05044
1.3378 -0.770406 -3.50165
0.66409 -0.575088 -4.02254
0.572183 -1.39631 -3.51315
0.985707 -1.16389 -3.53008
0.450417 -1.04766 -3.04832
-0.0310524 1.07519 3.61615
1.12075 1.0327 -2.96662
-0.221402 -0.991276 -2.21383
0.0954809 -1.99772 0.392062
0.143888 -1.29523 1.03812
-0.462938 -1.43137 0.924607
-1.16051 -1.62887 1.07143
1.4869 1.33759 1.14699
0.780637 1.84136 0.98663
1.20555 1.59582 0.558849
0.828238 1.1206 1.20527
0.715459 0.688066 -3.9533
1.46227 0.226861 -3.52995
1.45684 0.449099 -4.06776
0.347296 1.96962 -5
1.64512e-06 1.39241 -5
0.457285 1.25668 -5
0.631816 1.40892 -4.58703
0.979935 1.12472 -3.5263
-1.00598 -1.07955 -2.17113
-0.262781 -1.44905 -2.5902
-1.49173 -0.120909 -2.49162
-1.28442 -0.670143 -2.4152
-1.07858 -0.966013 -2.70586
-0.885269 -0.164869 -2.87619
-1.06744 -0.9349 2.74415
-0.922849 -1.1408 3.73564
-0.714772 -1.26005 3.10432
-0.483291 -1.40313 3.58644
-1.40722 -0.548748 3.61313
1.38712 -0.641248 -1.24505
0.909279 -1.21404 -1.10672
1.15863 -1.02144 -0.441053
0.650519 -1.30062 -0.519237
0.0950283 -1.19932 -0.395726
1.14489 1.01066 0.75261
0.335098 1.31655 -0.0445963
1.29031 0.682089 0.197491
-1.04938 1.02409 2.02053
-1.3502 0.778305 2.41393
-2 -2.44929e-16 1.42857
-1.90019 0.623912 1.78571
-2 -2.44929e-16 2.14286
1.73205 -1 3.07421
1.87938 -0.684044 2.43228
1.53209 -1.28558 2.43228
1.38359 -0.491801 -0.448003
-0.760023 -0.513166 -1.94736
-2 -2.44929e-16 -0.714286
-1.38479 0.15621 -1.39015
-1.47043 -0.399753 -1.29403
-2 -2.44929e-16 -1.42857
-1.61073 -1.18555 -1.42857
-1.61073 -1.18555 -0.714286
-1.90019 0.623912 -1.78571
-1.2671 0.46081 -1.78299
1.87939 0.684023 1.14841
1.24357 0.711962 1.13856
-0.63225 1.19536 3.05488
0.486572 -1.33747 1.68443
[...]
POINT_DATA 740

VECTORS displacements float
-0.00444211 -0.000662187 0.13705
-0.00214771 -0.00350721 0.137274
-0.00264536 -0.00112168 0.12596
-0.00229582 0.000414163 0.135401
0.0019585 -0.00187634 0.131561
1.00265e-05 -0.000153397 0.14143
0.00207021 0.00211363 0.13307
-0.000674956 0.00359774 0.142074
0.000227564 0.000950718 0.124373
-0.00142941 0.00379975 0.131137
-0.00399428 0.00207627 0.130603
-0.00652397 0.000420009 0.12792
-0.00674798 0.00392853 0.121233
-0.00461364 2.23718e-05 0.120655
-0.0057536 0.0016562 0.146136
-0.00237433 0.000446558 0.146016
-0.00879219 0.00137228 0.13432
-0.00736381 0.00371306 0.135953
-0.00403063 0.00439178 0.132997
-0.00219108 -0.00291031 0.14736
0.00435328 0.0045511 0.127184
0.00334909 0.00217695 0.11537
0.00421649 9.64405e-05 0.126563
0.00153943 0.00360752 0.123856
-0.0028524 0.00336548 0.119972
0.00238074 0.00649688 0.135056
0.0024652 0.00731087 0.125526
-0.00136682 0.0073361 0.124705
-0.0001965 0.00694532 0.133734
0.00524286 -0.00220507 0.0362696
0.00296897 0.00116104 0.0426524
0.00211723 -0.000344346 0.034042
0.00103599 -0.00157243 0.0463221
0.00178624 -0.00428335 0.0411755
0.00663547 -0.00358126 0.0464017
0.0029938 -0.00361089 0.0518695
-0.000198248 -0.000232832 0.0594737
0.00396838 -0.000600214 0.052797
0.00100983 0.00143947 0.049782
-0.00765756 -0.00216135 0.0451198
-0.00275293 -0.00153824 0.0479969
-0.00491109 -0.00560671 0.0441833
-0.00259344 -0.0034213 0.0406307
-0.000988223 -0.0028143 0.0333844
-0.00504405 -0.00293123 0.033217
-0.00258925 0.000345804 0.0317026
-0.00229133 -0.00525956 0.0318526
-0.00485215 -0.000631245 0.0403934
-0.000263126 -0.00821448 0.0400709
-0.00425584 -0.0029104 0.0245401
-0.00520576 0.000704054 0.0262612
-0.00165013 -0.00148961 0.0197722
-0.000958378 -0.00498697 0.0231085
0.000854804 -0.00119963 0.0213132
0.000747197 -0.00301124 0.0135322
7.89038e-05 -0.000983396 0.00604022
-0.000258399 0.000187135 0.0132032
-0.00310061 -0.000545074 0.0150557
-0.000427852 0.0015046 0.0232593
-0.001046 -0.000412584 0.00664096
-0.00198091 0.000547037 0.112344
-0.000115788 0.00367863 0.114521
0.00175399 -0.000318751 0.10937
0.00420108 0.00211416 0.103459
0.00312814 -0.00163899 0.0960025
0.000196389 4.41752e-05 0.100734
0.00166225 0.00463383 0.106137
0.00481098 -0.0021572 0.109764
0.00322947 -0.000670759 0.11781
-0.00792341 0.00287037 0.0354379
-0.00319977 0.00432036 0.0269444
-0.00631566 0.00561901 0.0354563
-0.00429268 0.00239558 0.0380758
-0.00573524 0.00551024 0.0470659
-0.00822218 0.0011134 0.0449609
-0.00454113 0.00158712 0.0481877
-0.00118202 0.0021098 0.165716
-0.00254009 0.00533161 0.168466
-1.33423e-05 0.00387124 0.158903
-0.00245786 0.00181031 0.158776
-0.00520261 0.00446913 0.16864
-0.00240932 0.00481608 0.159593
-0.00090568 0.000169791 0.156035
-0.00281848 -0.0016926 0.15908
-0.00249775 0.00268076 0.152019
-0.0051563 0.00340567 0.158925
-0.00386458 0.000418497 0.165645
-0.000357031 0.00319995 0.0974151
-0.000920317 0.00651142 0.0957077
0.00308912 0.00382334 0.0927892
0.00183219 0.00428222 0.0837864
0.00591894 0.00414064 0.0872585
0.00304553 0.000923225 0.0915343
0.00473865 0.00178339 0.0830627
-0.00309981 -0.00988489 0.157195
-0.00112756 -0.0103458 0.144554
-0.00468741 -0.00968715 0.144801
-0.00358076 -0.00655159 0.154229
-0.00350474 0.0055318 0.143574
-0.00709022 0.00522009 0.141356
-0.00570739 0.0051431 0.15227
-0.00854538 0.000861039 0.151906
-0.00808082 -0.000391839 0.143596
-0.00499669 -0.00100907 0.152616
-0.00747157 0.00344865 0.15376
-0.00552471 0.00113727 0.159136
-0.000799575 0.000871594 0.0423243
-0.000957529 -0.00461823 0.0479593
0.00128558 -0.00455511 0.0339477
0.00217966 0.0100584 0.170248
-0.00149062 0.0107941 0.17159
0.000547151 0.00996935 0.157117
3.69995e-05 0.0072373 0.164058
0.00288722 0.00424044 0.0349449
-0.00402939 0.00183456 0.104979
-0.00204531 -0.00204541 0.102289
-0.00386484 -0.0025801 0.110198
-0.0115407 -1.75206e-05 0.133444
-0.0113911 -0.00192196 0.121616
-0.0113956 0.00186871 0.121638
-0.00785316 -0.00103521 0.121476
0.00031363 -0.00350164 0.116701
-0.00478139 -0.00103837 0.100568
-0.00400014 -0.00139653 0.0867202
-0.00375921 -0.00405418 0.0959258
-0.000934207 -0.00657865 0.0957095
-0.000897868 -0.00330715 0.0921087
0.000230044 -0.00373632 0.142205
0.00651599 -0.00630775 0.155798
0.00729898 -0.00618195 0.140479
0.0051019 -0.00825548 0.146436
0.00482104 -0.00362028 0.15183
-0.000944013 -0.00751799 0.140807
-0.00379971 -0.00665278 0.141845
-0.00501812 -0.00209188 0.144226
-0.00152318 -0.00433585 0.127481
-0.0030272 -0.00337715 0.119462
-0.00351611 -0.00719722 0.0994206
-0.0031134 0.0033198 0.0940164
-0.00326275 0.00492762 0.10757
-0.00201239 -0.00318582 0.0579397
-0.00681924 -0.00397032 0.0536941
-0.00390495 -0.00674824 0.0551318
0.00679635 -0.000111793 0.13348
0.00665092 0.00263704 0.125376
0.00575067 0.00226626 0.136496
-0.00513824 -0.00100792 0.0528728
-0.00397859 0.00276685 0.0578431
-0.00196783 0.00349643 0.0469031
0.00185671 -0.0036464 0.0701595
-0.00083987 0.00205366 0.0669997
-0.00214992 -0.00187596 0.0697651
-0.00455741 -0.000209593 0.0668405
-0.00216028 -0.000201882 0.0776716
-0.000425222 -0.00452508 0.0790827
0.000811164 -0.000381631 0.0776382
0.000278734 -0.00492347 0.0600082
-0.00727418 -0.000654833 0.168492
-0.00976037 -0.00415276 0.173744
-0.00838415 -0.00247732 0.164079
-0.00563332 -0.00243308 0.161029
-0.00284858 -0.00416671 0.159673
-0.00754705 -0.00358666 0.153761
-0.00848522 -0.00129008 0.153324
-0.00590129 -0.00531898 0.153197
-0.00715328 -0.00457139 0.163957
0.00215636 0.00136437 0.0143758
0.00402727 -0.000354795 0.0241186
0.00644316 0.00236853 0.021368
0.00379277 0.00360219 0.0265114
0.00749019 -0.00244234 0.0230333
0.00614023 -0.00515896 0.0281118
0.00361081 -0.00118217 0.0134886
0.00318954 -0.00452774 0.0241062
0.0072214 -0.0006541 0.0173245
-0.00195277 -0.0101303 0.179238
-0.00341322 -0.00506545 0.168491
-0.000690716 -0.00608506 0.169215
-0.00243437 -0.00687913 0.163343
0.000459745 -0.00992545 0.157404
0.00237777 -0.00976359 0.14437
0.00116417 -0.00696475 0.151156
0.0011736 -0.00680042 0.163955
0.00370756 -0.00712102 0.173322
0.000352321 -0.00939661 0.174721
-0.00200266 -0.00218114 0.16575
0.0048177 0.00560921 0.113527
0.00177851 0.00685325 0.114664
-0.00052332 0.0073164 0.0681904
0.00144918 0.00317633 0.0605058
0.00316009 0.00630311 0.0618713
0.00174506 0.00349681 0.0716212
0.00528474 0.00393187 0.075718
0.00553643 0.00477881 0.0632258
0.00305386 0.00624666 0.0754265
-0.00109968 0.00142724 0.0852598
-0.00379348 0.00372028 0.0711354
0.00379121 -0.000558187 0.0775957
0.000742114 -0.00306767 0.104024
0.00570955 -0.0131922 0.186968
0.000992189 -0.0150878 0.187387
0.00176181 -0.00951515 0.177413
-0.00776348 -0.00798574 0.145124
-0.00622293 -0.00922606 0.133141
-0.0090461 -0.00691278 0.133299
-0.0065438 -0.00537688 0.142367
0.00805177 0.00155792 0.0769544
0.00177048 -0.0102877 0.130919
0.00720485 -0.000104719 0.0884138
0.00524485 -0.00248466 0.0872287
0.00392512 -0.0012646 0.0665041
-0.00770931 0.00105176 0.0576762
-0.0110062 -0.00194261 0.0561448
-0.00820499 -0.00170326 0.0677955
0.00573261 -0.00622272 0.0552614
0.00318766 -0.00630847 0.063127
0.00595316 -0.00575532 0.069915
0.00700816 -0.00378806 0.0645841
-0.00103564 -0.00787625 0.0698071
-0.00378135 -0.0063201 0.0680573
0.000888074 -0.00811158 0.055752
0.00246184 -0.00446703 0.0820832
0.00782768 -0.000825424 0.0972927
0.007255 0.00334001 0.100748
-0.00446736 -0.0148636 0.187132
-0.00522253 -0.0100504 0.170884
-0.00939584 -0.013321 0.187541
-0.00559229 -0.00782244 0.173217
-0.00321158 0.00426236 0.0842388
-0.00510924 -2.08711e-05 0.0777147
-0.00330333 -0.00351776 0.0797408
-0.00305877 0.00730289 0.0608791
0.00239496 0.00612664 0.163382
0.00133636 0.00436971 0.167615
0.00109039 0.00220679 0.159673
0.00524441 0.00130051 0.0649548
0.00260653 0.0103061 0.114911
-0.000540099 0.0107489 0.121346
-0.000877367 0.0108603 0.108869
-0.00392756 0.00635185 0.152861
0.000362441 0.000301868 0.150509
-0.000474244 0.0031417 0.152414
-0.0016596 0.00608225 0.155455
-0.0104472 0.00376908 0.044491
-0.00577315 0.00546936 0.0587312
0.00671798 0.000102902 0.114666
0.00687934 -0.00275018 0.118479
0.00311449 -0.00348646 0.120284
-0.00860777 0.000335113 0.114019
-0.00805093 0.00224085 0.101313
-0.0073821 0.00327373 0.111248
-0.00459943 -0.00679014 0.127805
-0.007487 -0.00848541 0.120695
-0.00718955 -0.00492411 0.133818
-0.0101173 -0.00545085 0.121588
-0.00641168 -0.00516366 0.119733
-0.0101087 -0.00519114 0.145358
-0.0109602 -0.0036982 0.133439
-0.00837301 -0.00167631 0.133879
-0.00508353 -0.0031519 0.130857
0.00351815 -0.00433399 0.141075
0.00632458 -0.00214609 0.140215
0.00318571 0.000856936 0.13932
-0.0107876 -0.00191803 0.0330951
-0.0111041 -5.881e-06 0.0445739
-0.00770521 -0.00052329 0.0333144
0.00199014 0.00295576 0.149946
0.00313208 -0.000554038 0.148306
-0.0014037 -0.0106202 0.171336
0.0019151 -0.000796932 0.159831
0.00309275 -0.00167973 0.155622
0.00323095 0.000426051 0.157381
0.00145239 -0.00271806 0.151739
0.00485483 0.00399436 0.146419
0.00608328 -0.000246446 0.147147
0.00576267 -0.00131215 0.156543
0.00574672 -0.00888178 0.107744
0.00277413 -0.0104402 0.101405
0.00256374 -0.0103744 0.114907
0.00180284 -0.0069907 0.115648
0.00403164 0.0041029 0.162991
0.00340024 0.0011467 0.167803
0.00568158 0.00222476 0.171406
0.000328408 1.10184e-05 0.164986
0.00828462 -0.00648631 0.101157
0.0059339 -0.00890864 0.0947908
0.00512996 -0.00569948 0.0997937
0.000246127 -0.00355714 0.158657
0.00057075 0.00493835 0.0244564
0.00421043 0.00618067 0.0241049
0.00224122 0.00438238 0.015189
0.00493284 0.00427599 0.0171063
0.000273028 0.00805086 0.0252414
-0.000607265 0.0033294 0.0150416
-0.000677778 0.00655628 0.0147687
0.00137592 0.00157848 0.00550694
-0.00415191 0.0102173 0.120494
0.00204388 -0.00996776 0.170797
0.000384479 0.00232938 0.00577502
-0.00101611 0.0102794 0.144529
-0.00314056 0.00725602 0.133628
-0.000238177 0.00655521 0.143802
-7.88051e-05 0.00365962 0.0326033
0.00419471 -0.0073675 0.0343439
0.0054553 -0.00537555 0.0356384
0.00321246 -0.00771835 0.0418968
-0.00618048 0.00918089 0.133218
-0.00558717 0.00644341 0.12617
-0.00699328 0.00406885 0.0250253
-0.00277823 0.00241097 0.0146442
-0.00298235 0.00734355 0.0246159
-0.00513947 0.00607444 0.0244388
-0.00251281 0.0057681 0.032764
-0.00118041 -0.00481735 0.153371
-0.00622881 -0.00573877 0.0345919
0.00114244 0.00551535 0.0479989
-0.000897964 0.0108819 0.0956727
-0.00131757 0.00700162 0.107495
0.00202033 0.00774279 0.105281
0.00577333 0.00880469 0.107749
-0.00869412 -0.00731987 0.109765
-0.00479575 -0.0100766 0.106655
-0.007041 -0.00876601 0.0989371
-0.00509083 -0.0061066 0.110688
-0.00314619 -0.00300681 0.0159189
-0.00764378 -0.00118025 0.0242798
-0.00623127 -0.00195667 0.0146714
2.9338e-12 2.9338e-12 2.9338e-12
2.9338e-12 2.9338e-12 2.9338e-12
2.9338e-12 2.9338e-12 2.9338e-12
-0.00150927 -0.00309536 0.00579097
-0.0051491 -0.00588712 0.0244471
0.00550536 0.00595343 0.0489037
0.00141101 0.0080104 0.0413238
0.0082218 0.000627367 0.043066
0.00707574 0.00368905 0.044432
0.00592437 0.00533159 0.0391337
0.00487539 0.000874807 0.0356791
0.00435067 0.00466956 0.13815
0.00295417 0.00529578 0.156184
0.0023741 0.00618924 0.144841
0.0011015 0.00664726 0.153661
0.00521511 0.00256644 0.153807
-0.0078294 0.00351873 0.0659927
-0.00517978 0.00666153 0.0684509
-0.00662318 0.0055831 0.0806643
-0.003815 0.00711571 0.0791577
-0.000782412 0.0065441 0.0813288
-0.00674656 -0.00554843 0.102487
-0.00216779 -0.00724526 0.0877756
-0.0074508 -0.00376633 0.0923627
0.00473622 -0.0054639 0.125051
0.00610758 -0.0041094 0.13213
0.0101706 -4.25401e-05 0.113999
0.00948479 -0.00338562 0.120494
0.0098196 -2.85907e-05 0.126958
-0.0101292 0.00523312 0.145388
-0.0109143 0.00363621 0.133415
-0.00902318 0.00682773 0.133325
-0.00787224 0.00267565 0.0805728
0.00413546 0.00282077 0.052845
0.010705 -4.69375e-05 0.07523
0.00748062 -0.000899302 0.0630402
0.00792633 0.00215325 0.0647825
0.0108054 -4.51071e-05 0.0623183
0.00871044 0.00643948 0.0623758
0.00860447 0.00642707 0.0752906
0.0103327 -0.00345727 0.0558628
0.00688878 -0.00259558 0.0558898
-0.0108467 -0.00375635 0.109874
-0.00735434 -0.00390202 0.109566
0.00199795 -0.00591825 0.14395
-0.00332176 0.00716324 0.11937
0.00805853 -0.00644682 0.11409
0.00775655 -0.00636026 0.127088
0.00845538 -0.00650022 0.0882216
0.00606808 -0.00892771 0.081824
0.00369384 -0.00755032 0.0815653
-0.00213634 0.00139753 0.00688891
-0.0022923 2.13849e-05 0.00622579
-0.00313998 0.00588176 0.0150933
-0.000195322 0.000869241 0.00601751
-0.00622085 0.00220959 0.014086
-0.000644599 0.00177525 0.00527388
-0.00848338 -2.64611e-05 0.163196
-0.00589911 -0.00357616 0.168637
-0.0083794 0.0020348 0.162193
-0.00920352 0.00383623 0.172799
0.00292256 -0.0104637 0.0884041
0.000660636 -0.00790507 0.0894365
0.00635267 -0.00902791 0.0430954
0.00881412 -0.00658246 0.0367481
0.00877776 -0.00656072 0.049442
0.0103672 -0.00347626 0.0430596
0.0109116 -4.30076e-05 0.0494372
0.0081088 -0.00290569 0.0362262
0.00618757 -0.00895969 0.0688746
0.00309794 -0.0105381 0.0617274
0.00131912 -0.0077931 0.0762358
0.00294753 0.010386 0.0884125
-0.000756739 0.0109072 0.0813284
0.003074 0.0104085 0.0754019
0.000291474 0.00811384 0.0884391
0.00614666 -0.00908596 0.0555556
0.00733387 0.00207223 0.055857
0.00199545 -0.00445368 0.168609
0.00541555 -0.00262343 0.168428
0.00609964 0.00884434 0.081826
0.00620726 0.00886794 0.0688759
0.00326391 -0.00223812 0.16816
0.00374679 -0.00490021 0.162591
-0.00463407 0.00972131 0.144991
-0.00442968 -0.0101969 0.0886859
-0.00512783 -0.00655552 0.089158
-0.000787699 -0.0109766 0.0812977
-0.000923162 -0.0109474 0.0956758
-0.000842528 -0.00194232 0.00566463
-0.00328764 -0.00564359 0.0155983
2.9338e-12 2.9338e-12 2.9338e-12
0.000935524 -3.33259e-08 0.00577284
0.0022551 -0.00705574 0.0216264
0.00264068 -0.00367394 0.00900196
0.00145274 -0.00608553 0.0115067
-0.000695098 -0.00648076 0.0132396
-0.000928216 -0.00726302 0.108866
-0.00713296 0.00325079 0.0896199
0.00995414 0.00334401 0.0946392
0.00976242 0.0033379 0.107562
0.00830823 0.00639822 0.101162
-0.0088729 -0.000286322 0.0888386
-0.00691403 0.00546469 0.0999303
0.00503047 -0.00334079 0.0130282
0.00422026 -0.00584546 0.0162301
0.00506129 -0.00613631 0.01196
0.00823761 -0.00631938 0.0234601
0.0063123 -0.00342665 0.0110593
0.00246755 -0.00741408 0.0116509
0.00502033 -0.00882111 0.0218406
0.00891136 0.00010598 0.168724
0.00847515 -0.00330745 0.147074
0.00891762 -0.000133501 0.153969
0.00868926 -0.00653601 0.0623625
-0.00302719 -0.00677712 0.119534
0.00262082 -0.00664867 0.129199
-0.00493835 0.00646582 0.163728
-0.0112014 -2.60092e-05 0.0678395
-0.0110861 0.00188597 0.079562
-0.0110884 -0.00193206 0.0795626
-0.00865232 0.000812103 0.0734933
-0.00252802 0.00724079 0.163929
-0.00776804 0.0079769 0.145233
-0.00099129 -0.0075491 0.130536
0.00304618 -0.0104806 0.075401
0.0136023 0.000367992 0.186584
0.00825274 -0.00176628 0.179214
0.00867665 0.0017304 0.179079
0.00238842 0.00965646 0.144559
-0.00562278 0.00639022 0.11185
-0.00021924 0.00751807 0.0335566
0.00816405 -0.000140297 0.0286404
0.00733521 0.00354913 0.0314279
0.00365098 0.00749451 0.0306869
0.00813177 0.00620668 0.02338
0.00822451 0.00299584 0.160823
0.00541084 0.0088085 0.121045
0.00179543 0.010285 0.130937
0.00272118 0.0106173 0.0460518
0.000103797 0.0109841 0.0557275
-0.00181761 0.010836 0.0444972
-0.00815141 -0.00258824 0.0809682
0.00311543 0.008342 0.0686599
-0.00375392 -0.0102845 0.0330268
3.07661e-05 -0.0109851 0.0333763
8.91342e-05 -0.00742394 0.0327359
-0.00973157 0.00553309 0.0789945
-0.0105969 0.00389699 0.089872
0.00618724 0.00899269 0.055632
-0.000500349 0.0109505 0.068199
0.00316064 0.0104451 0.0618915
0.00107265 0.00778717 0.055607
0.00687422 -0.0038005 0.0760849
-0.00351612 -0.00704041 0.0796177
0.00296054 -0.0051618 0.0941631
0.00783997 -0.0017052 0.0754752
0.0100935 -0.00344471 0.0816991
0.00658341 0.00486824 0.177459
-0.00700327 -0.00398112 0.0117405
-0.00957409 -0.00353207 0.0221363
-0.00792936 -0.00660782 0.0219127
-0.00524583 -0.00437906 0.014661
0.00131096 -0.00651148 0.102434
-0.00701555 -0.00866038 0.0568329
-0.00840846 -0.00734487 0.0679362
-0.00595608 -0.00460653 0.0680936
-0.00692482 -0.00875302 0.0787229
-0.00370136 -0.0104643 0.0568148
-0.00514658 0.00636712 0.0897612
-0.00681621 -3.17934e-05 0.0135485
-0.0017712 -0.00119094 0.0053327
-0.00441018 0.0101336 0.0885903
-0.00446325 0.0100975 0.0706413
-0.00286212 -0.00771086 0.0253818
-0.00176063 -0.00543464 0.17455
0.0017451 -0.00392676 0.173757
0.0125883 0.0048659 0.186606
0.00881489 0.00640332 0.0369008
0.00879878 0.00648119 0.0494696
0.010331 0.00337481 0.055901
0.0105737 -4.49896e-05 0.0881581
0.00514316 -0.00859713 0.133825
0.0102196 -0.00345575 0.0687696
0.00858038 -0.00651889 0.0752831
2.9338e-12 2.9338e-12 2.9338e-12
0.0020022 -0.000277487 0.00484596
0.00213545 0.000885146 0.0066168
-0.0101098 0.00540206 0.121595
-0.0074661 0.00844521 0.120727
-0.00183934 0.010066 0.179334
0.00514998 0.00856216 0.133687
0.00930588 -2.66838e-05 0.140084
0.00906445 -0.0033266 0.133508
-0.00401082 0.00707264 0.0979983
0.00512166 -0.00545786 0.111392
-0.00697781 -0.00401436 0.0246633
-0.00266911 -0.0104777 0.132851
-0.0071276 0.00464188 0.164243
-0.00560368 -0.00370736 0.174192
0.00975538 -0.00342269 0.10757
0.00371256 0.010165 0.0330003
6.74131e-05 0.010878 0.0332667
-0.00523792 0.00444202 0.0143681
-0.00172822 0.00768558 0.0467606
-0.00868791 0.00726154 0.109749
-0.0108318 0.0037128 0.109886
-0.00977618 0.00570654 0.0989442
-0.00288624 0.00753137 0.0117552
-0.00187892 0.0101053 0.0220541
-0.00501881 0.0088124 0.0220492
2.9338e-12 2.9338e-12 2.9338e-12
2.9338e-12 2.9338e-12 2.9338e-12
2.9338e-12 2.9338e-12 2.9338e-12
2.9338e-12 2.9338e-12 2.9338e-12
2.9338e-12 2.9338e-12 2.9338e-12
-0.00167851 0.00335098 0.00590291
0.00630709 0.00894256 0.0431901
-0.00559329 0.00956243 0.0444805
-0.00528297 0.00420155 0.174485
-0.00308466 0.0100056 0.157397
-0.00642173 -0.00877152 0.157244
-0.00477667 0.0100191 0.106612
-0.00708097 0.00866965 0.0987363
-0.010531 -0.00378958 0.06781
0.00845243 0.00316715 0.14679
0.00665779 0.00596493 0.154905
0.00734565 0.00606813 0.140071
2.9338e-12 2.9338e-12 2.9338e-12
2.9338e-12 2.9338e-12 2.9338e-12
-0.00708642 0.00398496 0.0118374
-0.00317607 0.00130246 0.00551646
0.00182441 0.0100754 0.0219572
0.00285115 0.00565585 0.0123469
0.00775971 0.00629972 0.127076
-0.00262209 0.0104743 0.132929
-0.0105279 0.00374482 0.0678101
-0.00497402 0.00573406 0.0109033
-0.00704365 -0.00508693 0.079954
0.00948489 0.00332815 0.120494
0.00908608 0.00329609 0.133497
0.0031364 0.00666732 0.0940085
0.00690796 0.00271549 0.11146
0.00595609 0.00882929 0.0947931
0.0050036 0.00548217 0.10105
0.00141334 -0.00197119 0.00641761
-0.00772356 0.00135042 0.0239301
0.00406984 0.00148803 0.00804474
-0.00558433 -0.00957316 0.0444904
-0.00188986 -0.0108903 0.0443684
-0.0134265 -0.00972294 0.18761
-0.0105893 -0.0050349 0.177554
-0.0082342 -0.00764517 0.1793
-0.00946213 -0.00547427 0.0330846
0.000214544 -0.00206633 0.00538674
-0.00815971 -0.00160473 0.101727
2.9338e-12 2.9338e-12 2.9338e-12
2.9338e-12 2.9338e-12 2.9338e-12
2.9338e-12 2.9338e-12 2.9338e-12
0.00113782 -0.00214044 0.00444836
2.9338e-12 2.9338e-12 2.9338e-12
-0.00491552 -0.00564418 0.0108699
2.9338e-12 2.9338e-12 2.9338e-12
0.0081456 0.00535243 0.170763
0.00912876 0.00909935 0.184984
0.00555298 0.00821605 0.170135
-0.00487831 -0.00622995 0.162327
2.9338e-12 2.9338e-12 2.9338e-12
0.00376762 0.00878406 0.156825
2.9338e-12 2.9338e-12 2.9338e-12
2.9338e-12 2.9338e-12 2.9338e-12
0.00166543 0.00827314 0.172972
2.9338e-12 2.9338e-12 2.9338e-12
0.00375339 -0.000809396 0.00702625
2.9338e-12 2.9338e-12 2.9338e-12
2.9338e-12 2.9338e-12 2.9338e-12
0.00833323 3.85465e-05 0.0121597
0.00900135 0.00273152 0.0188237
0.00667512 0.00839077 0.0321735
-0.00373094 0.010229 0.0329825
-0.00700171 0.00832689 0.0331521
-0.0113509 0.0017885 0.145388
-0.00839689 0.00264895 0.147016
-0.0108319 -0.0035407 0.157781
-0.0113004 -0.00186771 0.145484
-0.00975696 -0.00556082 0.0794103
0.00468048 0.00760048 0.178964
-0.00638535 0.00884638 0.157472
0.00567046 0.0131057 0.186603