# vtk DataFile Version 1.0
results.vtk  3D Unstructured Grid of Triangles
ASCII

DATASET UNSTRUCTURED_GRID
POINTS 23 float
0.214696 -0.214696 -5
1.59099 1.59099 -2.5
2.22045e-16 2.12132 -5
-0.0438348 -0.0118382 -2.49568
1.59099 -1.59099 -2.5
-1.06066 1.06066 0
1.06066 1.06066 0
-2.12132 2.22045e-16 -5
-1.59099 1.59099 -2.5
-1.59099 -1.59099 -2.5
1.11022e-16 -2.12132 -5
-1.06066 -1.06066 8.41885e-16
1.06066 -1.06066 8.41885e-16
-2.12132 2.12132 -5
0.53033 -0.53033 2.5
-0.53033 0.53033 2.5
0 0 5
0.53033 0.53033 2.5
2.12132 -2.22045e-16 -5
2.12132 2.12132 -5
-0.53033 -0.53033 2.5
-2.12132 -2.12132 -5
2.12132 -2.12132 -5
CELLS 35 175
4 0 1 2 3
4 0 4 1 3
4 5 1 6 3
4 7 8 9 3
4 2 8 7 3
4 10 7 9 3
4 10 9 4 3
4 11 9 5 3
4 11 5 12 3
4 12 5 6 3
4 11 12 9 3
4 2 13 7 8
4 14 15 16 17
4 14 5 15 6
4 0 18 2 1
4 19 2 18 1
4 0 4 18 1
4 0 2 7 3
4 10 4 0 3
4 11 15 14 5
4 12 6 4 3
4 11 20 14 15
4 10 7 21 9
4 14 15 17 6
4 12 5 14 6
4 10 0 7 3
4 12 4 9 3
4 5 8 1 3
4 14 20 16 15
4 11 14 12 5
4 9 8 5 3
4 2 1 8 3
4 10 22 0 4
4 0 22 18 4
4 4 6 1 3
CELL_TYPES 35
10
10
10
10
10
10
10
10
10
10
10
10
10
10
10
10
10
10
10
10
10
10
10
10
10
10
10
10
10
10
10
10
10
10
10

POINT_DATA 23

VECTORS displacements float
-1.06753e-12 -1.06753e-12 -1.06753e-12
-1.56735e-08 -6.82738e-08 3.86007e-08
-1.06753e-12 -1.06753e-12 -1.06753e-12
-1.63182e-08 -8.44562e-08 1.00965e-08
3.30143e-08 -3.72596e-08 -6.22079e-09
-5.28549e-08 -2.19065e-07 1.19275e-07
-4.41027e-08 -1.23724e-07 7.66908e-08
-1.06753e-12 -1.06753e-12 -1.06753e-12
-7.78334e-10 -1.14323e-07 5.71492e-08
2.97345e-08 -1.16896e-07 -6.72858e-08
-1.06753e-12 -1.06753e-12 -1.06753e-12
4.79189e-08 -2.11833e-07 -3.60678e-08
2.34389e-09 -1.21757e-07 -9.44448e-09
-1.06753e-12 -1.06753e-12 -1.06753e-12
6.52833e-08 -4.40282e-07 8.98134e-08
-1.40178e-08 -4.90246e-07 1.90696e-07
-9.5716e-08 -8.44012e-07 1.39745e-07
-2.64979e-08 -4.29192e-07 2.32623e-07
-1.06753e-12 -1.06753e-12 -1.06753e-12
-1.06753e-12 -1.06753e-12 -1.06753e-12
1.28758e-07 -4.94246e-07 4.93051e-08
-1.06753e-12 -1.06753e-12 -1.06753e-12
-1.06753e-12 -1.06753e-12 -1.06753e-12

SCALARS summary float
LOOKUP_TABLE default
1.84902e-12
7.99812e-08
1.84902e-12
8.66088e-08
5.01689e-08
2.5497e-07
1.52099e-07
1.84902e-12
1.27814e-07
1.38117e-07
1.84902e-12
2.2016e-07
1.22145e-07
1.84902e-12
4.54066e-07
5.26215e-07
8.60841e-07
4.88898e-07
1.84902e-12
1.84902e-12
5.13116e-07
1.84902e-12
1.84902e-12
