# vtk DataFile Version 1.0
results.vtk  3D Unstructured Grid of Triangles
ASCII

DATASET UNSTRUCTURED_GRID
POINTS 740 float
0.694791 0.130463 2.67515
0.225712 0.71149 2.70322
0.347303 0.209756 2.0606
0.263615 -0.0874338 2.60622
-0.573873 0.370494 2.38629
-0.244612 0.0245577 2.97037
-0.594811 -0.425003 2.47414
-0.0935819 -0.758035 2.9785
-0.200494 -0.185798 1.97956
0.104183 -0.747625 2.35055
0.604534 -0.413019 2.31248
1.08379 -0.0844404 2.15003
1.1209 -0.736636 1.77837
0.72664 -0.011606 1.75606
0.968191 -0.35486 3.17974
0.266057 -0.112779 3.23609
1.50654 -0.263447 2.48711
1.24273 -0.723289 2.58531
0.606529 -0.864414 2.43427
0.207739 0.643877 3.30027
-0.986264 -0.872657 2.13769
-0.747426 -0.413591 1.48463
-0.972097 -0.0203838 2.1093
-0.443461 -0.691782 1.9511
0.399686 -0.63701 1.7221
-0.651919 -1.27156 2.56372
-0.617297 -1.37894 2.04011
0.109326 -1.38663 1.98402
-0.144554 -1.35474 2.486
-0.946004 0.382743 -2.84653
-0.542912 -0.213622 -2.49329
-0.393139 0.0538712 -2.94859
-0.19885 0.271648 -2.29471
-0.330074 0.754352 -2.57871
-1.20306 0.633643 -2.30496
-0.550916 0.638839 -2.00004
0.0114918 0.03363 -1.58621
-0.727178 0.100204 -1.94732
-0.198238 -0.262245 -2.10802
1.35687 0.382114 -2.38356
0.473969 0.266599 -2.20996
0.865024 0.994976 -2.4312
0.449942 0.603803 -2.60875
0.167619 0.500254 -2.98977
0.905056 0.528284 -3.01873
0.460242 -0.0694602 -3.0767
0.40519 0.951767 -3.09234
0.852914 0.109146 -2.62511
0.0374554 1.46975 -2.66085
0.802641 0.559414 -3.48241
0.967043 -0.128033 -3.38609
0.329633 0.297896 -3.72017
0.183769 0.957993 -3.55798
-0.182807 0.232551 -3.62832
-0.209786 0.787909 -4.07758
0.0289386 0.468602 -4.53742
0.0570483 -0.0587407 -4.09489
0.744078 0.124335 -3.99175
0.0680859 -0.302104 -3.52473
0.477192 0.233558 -4.52208
0.253089 -0.1093 1.30487
-0.0968805 -0.69125 1.42846
-0.432684 0.0526357 1.15023
-0.864814 -0.396795 0.829579
-0.650254 0.294086 0.416758
-0.122562 -0.0142581 0.670731
-0.40338 -0.861227 0.970655
-0.998596 0.391814 1.17877
-0.73732 0.118643 1.62038
1.42315 -0.513016 -2.92054
0.596692 -0.806694 -3.35643
1.13682 -1.01387 -2.91774
0.756014 -0.428452 -2.74998
1.01491 -0.990726 -2.27668
1.46083 -0.2004 -2.39642
0.794215 -0.286883 -2.20462
-0.0926429 -0.417303 4.55884
0.160689 -0.959442 4.56322
-0.320628 -0.906835 3.979
0.220271 -0.428342 4.0618
0.657557 -0.817902 4.54725
0.22686 -1.06367 3.98269
-0.106956 -0.0334144 3.90676
0.324916 0.393636 4.0815
0.271692 -0.617279 3.58797
0.85072 -0.758022 3.91835
0.4144 -0.0773168 4.55215
-0.0129845 -0.5932 0.487003
0.0952726 -1.19842 0.392217
-0.634305 -0.707705 0.240186
-0.387203 -0.788609 -0.256454
-1.14085 -0.766761 -0.0587396
-0.625113 -0.175689 0.171015
-0.917635 -0.333542 -0.291646
0.347335 1.96961 3.71613
-0.0133086 1.99996 3.05396
0.684073 1.87937 3.0742
0.467345 1.39455 3.604
0.495202 -1.13161 3.02673
1.18762 -1.0211 2.87645
0.930811 -1.08312 3.48626
1.52653 -0.166804 3.44314
1.40183 0.0764182 3.00152
0.844865 0.208392 3.58707
1.29628 -0.730428 3.55034
0.951165 -0.27334 3.96627
0.130593 -0.158829 -2.50823
0.155054 0.816771 -2.21519
-0.238319 0.813559 -2.96773
-0.68404 -1.87939 4.35807
1.22465e-16 -2 4.35807
-0.347296 -1.96962 3.71614
-0.290656 -1.52094 4.1291
-0.531415 -0.765332 -2.91605
0.645083 -0.343367 0.894605
0.285801 0.369213 0.751075
0.604324 0.471284 1.18163
2 -8.7523e-06 2.43227
1.96962 0.347283 1.79034
1.96961 -0.347305 1.79034
1.32603 0.185707 1.78959
-0.186322 0.647444 1.55137
0.789764 0.184241 0.651123
0.669452 0.248868 -0.105563
0.610872 0.735567 0.398906
0.0947914 1.19858 0.39238
0.0948764 0.598697 0.194897
-0.27403 0.777508 2.98488
-1.56743 1.24224 3.68285
-1.60946 1.18728 2.87269
-1.20732 1.59448 3.17915
-1.28061 0.757735 3.49986
-0.034822 1.48681 2.87045
0.53842 1.31696 2.9201
0.807103 0.440489 3.07938
0.124244 0.827152 2.14806
0.431994 0.628932 1.69522
0.559339 1.31241 0.591102
0.49695 -0.612833 0.295415
0.500059 -0.913823 1.03804
0.336331 0.563186 -1.67244
1.20541 0.706587 -1.91459
0.684029 1.20683 -1.83402
-1.49312 0.0188008 2.49064
-1.40604 -0.50169 2.0448
-1.32263 -0.452752 2.65743
0.900744 0.174749 -1.95334
0.691626 -0.50312 -1.68041
0.33314 -0.626238 -2.27001
-0.371524 0.654249 -1.00357
0.120692 -0.377489 -1.17792
0.353868 0.33357 -1.02901
0.791206 0.0316122 -1.19249
0.347053 0.0303232 -0.597428
0.0305666 0.81771 -0.518206
-0.192472 0.0625401 -0.595159
-0.0749746 0.879135 -1.5601
1.06096 0.127354 4.54181
1.44799 0.75186 4.60542
1.4512 0.52692 4.10155
0.929119 0.547844 4.06884
0.321918 0.943445 4.02332
1.31235 0.749814 3.55679
1.51 0.26515 3.52141
0.96328 1.12646 3.53381
1.19478 0.984257 4.10395
-0.533032 -0.33643 -4.01539
-0.786084 0.060553 -3.48858
-1.30225 -0.485404 -3.68445
-0.726426 -0.679411 -3.37254
-1.45309 0.462446 -3.60207
-1.13237 0.941406 -3.31625
-0.892929 0.281444 -4.07768
-0.609693 0.838868 -3.50247
-1.53864 0.143054 -3.91909
6.93889e-05 1.39326 5
0.328477 0.934274 4.57093
-0.151918 1.10055 4.57876
0.208841 1.4952 4.0922
-0.347248 1.96962 3.71613
-0.67419 1.88294 3.06477
-0.491074 1.44287 3.43979
-0.553868 1.4356 4.13565
-0.938952 1.26228 4.628
-0.365512 1.62925 4.64695
0.0730171 0.441872 4.55519
-1.00809 -1.04512 1.38569
-0.447266 -1.27695 1.44011
0.0652994 -1.33449 -1.11536
-0.284584 -0.578554 -1.52981
-0.594436 -1.14788 -1.45877
-0.351937 -0.641799 -0.92291
-1.00445 -0.724238 -0.694815
-1.02916 -0.874322 -1.38206
-0.594569 -1.14709 -0.714108
0.144184 -0.266982 -0.180767
0.652376 -0.679604 -0.957302
-0.736143 0.094502 -0.592812
-0.231598 0.559014 0.853188
-0.999949 1.73208 5
-0.347248 1.96962 5
-0.455343 1.2514 5
1.28559 1.53207 3.0742
1.00003 1.73204 2.43227
1.5321 1.28556 2.43227
1.07313 1.05943 2.93903
-1.51414 -0.292928 -0.623069
-0.502754 1.93578 2.33508
-1.38079 0.0114873 0.0073595
-1.0194 0.44735 -0.0615236
-0.741681 0.222377 -1.20073
1.36625 -0.193981 -1.69893
1.96961 0.347305 -1.79034
1.4531 0.30443 -1.14675
-1.05899 1.11855 -1.82149
-0.604741 1.13413 -1.38946
-1.11832 1.04198 -1.0139
-1.30139 0.681992 -1.30576
0.15546 1.4248 -1.02774
0.652745 1.13926 -1.12628
-0.180829 1.45524 -1.79835
-0.500532 0.80874 -0.348901
-1.51597 0.143971 0.498562
-1.41869 -0.622442 0.687799
0.347335 1.96961 5
0.684073 1.87937 4.35807
1.00003 1.73204 5
0.670358 1.39305 4.62075
0.531534 -0.782624 -0.240078
0.88259 -0.00155252 -0.59978
0.55291 0.633916 -0.486403
0.530359 -1.32255 -1.51873
-0.791617 -1.27485 4.12306
-0.543809 -0.788631 4.54285
-0.585303 -0.503793 4.08642
-0.97822 -0.242695 -1.28499
-0.596166 -1.90908 1.45657
-0.0336619 -1.99972 1.80292
0.0648054 -1.99895 1.11422
0.559619 -1.32847 3.51786
-0.380712 -0.077516 3.5307
-0.186417 -0.728217 3.59952
0.078921 -1.313 3.69131
1.87939 -0.684027 -2.43227
1.01907 -0.990608 -1.63918
-1.36686 -0.0256218 1.45413
-1.4132 0.507239 1.66447
-0.727361 0.652 1.75674
1.46979 -0.0667187 1.37933
1.38608 -0.414672 0.68531
1.24981 -0.608241 1.22973
0.709511 1.27719 2.14406
1.24816 1.56272 1.74493
1.19583 0.931639 2.46775
1.73206 0.999984 1.79034
1.0572 0.955492 1.69823
1.73206 0.999987 3.0742
1.87939 0.684027 2.43227
1.42898 0.314686 2.4673
0.806663 0.605388 2.32115
-0.922856 0.873347 2.90784
-1.46992 0.42034 2.85899
-0.872682 -0.178624 2.83417
1.96961 0.3473 -3.07421
2 8.7523e-06 -2.43227
1.39384 0.0931129 -3.02805
-0.730313 -0.651708 3.44772
-0.951989 0.116586 3.35341
4.42745e-05 2 4.35807
-0.758675 0.194374 4.10335
-1.00318 0.377542 3.77743
-1.05272 -0.0847599 3.88951
-0.619488 0.611624 3.55697
-1.24182 -0.821408 3.20209
-1.49955 0.0459942 3.2415
-1.51661 0.265028 3.75168
-1.16051 1.62887 1.07143
-0.594462 1.90961 0.714286
-0.596209 1.90907 1.45645
-0.460773 1.29062 1.49374
-1.17927 -0.890726 4.12636
-0.972805 -0.202196 4.55696
-1.35681 -0.379816 4.59982
-0.388414 -0.00274093 4.53631
-1.61073 1.18555 0.714286
-1.16051 1.62887 0.357143
-1.02687 1.04099 0.630451
-0.379187 0.822102 3.97741
-0.108469 -0.944899 -3.48703
-0.819466 -1.1919 -3.53844
-0.498238 -1.01423 -4.01242
-1.08764 -0.944458 -3.92796
-0.0485693 -1.51445 -3.48143
0.146775 -0.779959 -3.99549
0.149208 -1.46737 -4.05799
-0.657844 -0.765739 -4.58661
0.639601 -1.89497 1.7434
-0.683989 1.8794 4.35807
-0.162403 -1.05324 -4.54684
-0.0148247 -1.99995 3.05394
0.4254 -1.40307 2.46836
-0.173132 -1.32807 3.04381
0.00504034 -0.664902 -3.03729
-0.760504 1.32674 -2.97622
-0.985702 0.956287 -2.89721
-0.587339 1.37756 -2.55835
1 -1.73205 2.43228
0.897083 -1.21442 2.05044
1.3378 -0.770406 -3.50165
0.66409 -0.575088 -4.02254
0.572183 -1.39631 -3.51315
0.985707 -1.16389 -3.53008
0.450417 -1.04766 -3.04832
-0.0310524 1.07519 3.61615
1.12075 1.0327 -2.96662
-0.221402 -0.991276 -2.21383
0.0954809 -1.99772 0.392062
0.143888 -1.29523 1.03812
-0.462938 -1.43137 0.924607
-1.16051 -1.62887 1.07143
1.4869 1.33759 1.14699
0.780637 1.84136 0.98663
1.20555 1.59582 0.558849
0.828238 1.1206 1.20527
0.715459 0.688066 -3.9533
1.46227 0.226861 -3.52995
1.45684 0.449099 -4.06776
0.347296 1.96962 -5
1.64512e-06 1.39241 -5
0.457285 1.25668 -5
0.631816 1.40892 -4.58703
0.979935 1.12472 -3.5263
-1.00598 -1.07955 -2.17113
-0.262781 -1.44905 -2.5902
-1.49173 -0.120909 -2.49162
-1.28442 -0.670143 -2.4152
-1.07858 -0.966013 -2.70586
-0.885269 -0.164869 -2.87619
-1.06744 -0.9349 2.74415
-0.922849 -1.1408 3.73564
-0.714772 -1.26005 3.10432
-0.483291 -1.40313 3.58644
-1.40722 -0.548748 3.61313
1.38712 -0.641248 -1.24505
0.909279 -1.21404 -1.10672
1.15863 -1.02144 -0.441053
0.650519 -1.30062 -0.519237
0.0950283 -1.19932 -0.395726
1.14489 1.01066 0.75261
0.335098 1.31655 -0.0445963
1.29031 0.682089 0.197491
-1.04938 1.02409 2.02053
-1.3502 0.778305 2.41393
-2 -2.44929e-16 1.42857
-1.90019 0.623912 1.78571
-2 -2.44929e-16 2.14286
1.73205 -1 3.07421
1.87938 -0.684044 2.43228
1.53209 -1.28558 2.43228
[...]
POINT_DATA 740

VECTORS displacements float
-1.76801e-06 3.29143e-06 5.35091e-07
-1.21865e-06 3.89472e-06 -1.48251e-07
-1.47156e-06 3.28068e-06 2.97903e-07
-1.94271e-06 3.71567e-06 4.99941e-07
-1.40756e-06 4.248e-06 -1.53124e-07
-1.95425e-06 4.41789e-06 1.36831e-07
-2.07078e-06 4.42138e-06 3.15507e-07
-2.70822e-06 4.27889e-06 7.77593e-07
-1.74362e-06 3.70406e-06 3.26318e-07
-2.42685e-06 3.7059e-06 8.05887e-07
-2.027e-06 3.21863e-06 7.2493e-07
-1.74422e-06 2.59335e-06 7.30104e-07
-2.07736e-06 2.4887e-06 1.15783e-06
-1.53744e-06 2.67447e-06 5.4832e-07
-2.44139e-06 3.34487e-06 9.89539e-07
-2.2208e-06 4.1884e-06 4.91508e-07
-2.07512e-06 2.43635e-06 9.98228e-07
-2.46439e-06 2.80376e-06 1.2022e-06
-2.52199e-06 3.26363e-06 1.11486e-06
-1.44779e-06 4.20654e-06 -4.94186e-08
-2.34244e-06 4.39061e-06 4.40681e-07
-1.69471e-06 3.69261e-06 2.29149e-07
-1.69442e-06 4.38792e-06 -9.60864e-08
-2.112e-06 3.79322e-06 5.37144e-07
-1.94639e-06 2.88442e-06 8.05703e-07
-2.82502e-06 4.52186e-06 8.51215e-07
-2.77703e-06 4.09474e-06 9.68184e-07
-2.68929e-06 3.35756e-06 1.21448e-06
-2.87044e-06 4.04932e-06 1.1583e-06
7.78121e-08 9.05182e-07 -8.59394e-08
-1.47492e-07 9.39944e-07 1.83479e-07
2.94503e-08 6.78651e-07 8.14753e-08
-6.13939e-08 9.75173e-07 3.00653e-08
1.68114e-07 8.9223e-07 -2.12512e-07
1.05846e-07 1.31066e-06 -3.47442e-07
8.10263e-08 1.23516e-06 -1.64071e-07
-2.71578e-07 1.21131e-06 1.50076e-07
-9.26132e-08 1.33801e-06 -5.57249e-08
-2.49984e-07 1.04271e-06 2.51071e-07
-4.05262e-09 3.66343e-07 4.35375e-07
-9.88699e-08 7.143e-07 1.67373e-07
2.55343e-07 5.40203e-07 -1.50438e-08
6.42185e-08 5.84948e-07 5.89901e-08
8.29713e-08 4.87019e-07 2.92724e-08
7.90753e-08 2.44913e-07 1.60404e-07
-8.45832e-08 3.65288e-07 2.69435e-07
2.27818e-07 3.31491e-07 -1.00729e-07
-7.09187e-08 4.77671e-07 3.1425e-07
3.86427e-07 7.03448e-07 -4.46961e-07
6.86133e-08 8.36152e-08 9.66291e-08
-4.33015e-08 1.19956e-07 2.99025e-07
7.16538e-09 1.37381e-07 4.59142e-08
1.9472e-07 1.98707e-07 -1.09205e-07
3.27721e-08 3.11472e-07 2.71183e-09
1.16692e-07 1.78601e-07 -1.4822e-07
6.64516e-08 1.54827e-08 -1.81985e-08
-2.79419e-08 7.94833e-08 5.70255e-08
2.34615e-08 3.2599e-08 1.45915e-07
-2.56926e-08 3.27225e-07 1.66632e-07
1.85139e-08 -2.4765e-08 4.92181e-08
-1.45248e-06 2.75362e-06 3.82777e-07
-1.91236e-06 3.18667e-06 6.42605e-07
-1.23285e-06 3.19779e-06 7.15052e-08
-1.44204e-06 3.3311e-06 2.13974e-07
-7.5845e-07 2.79057e-06 -1.69182e-07
-1.06571e-06 2.66873e-06 2.01185e-07
-1.79185e-06 3.17396e-06 6.52972e-07
-1.09628e-06 3.63315e-06 -3.43532e-07
-1.2528e-06 3.7629e-06 -1.17477e-07
-1.58029e-07 1.51936e-07 5.67301e-07
-1.35769e-07 2.72836e-07 4.03088e-07
-2.87676e-07 3.22937e-07 6.06184e-07
-1.46807e-07 4.8594e-07 4.52641e-07
-4.5383e-07 5.71409e-07 7.33889e-07
-1.33539e-07 3.42586e-07 5.6835e-07
-2.03462e-07 6.62664e-07 4.45368e-07
-3.14112e-06 5.27641e-06 4.85699e-07
-3.63267e-06 4.96344e-06 8.74035e-07
-3.26577e-06 5.20295e-06 6.5723e-07
-2.86037e-06 4.74059e-06 6.30206e-07
-3.46255e-06 4.46821e-06 1.05263e-06
-3.39373e-06 4.65951e-06 1.04577e-06
-2.41195e-06 4.94468e-06 3.19581e-07
-2.01503e-06 4.63291e-06 1.63806e-07
-2.82337e-06 4.3617e-06 7.66713e-07
-3.06269e-06 3.98226e-06 1.11025e-06
-2.59049e-06 4.85714e-06 5.18376e-07
-1.39427e-06 2.45149e-06 6.03703e-07
-1.67304e-06 2.25916e-06 9.43178e-07
-1.35138e-06 2.65004e-06 4.84412e-07
-1.14395e-06 2.19796e-06 5.0585e-07
-1.11589e-06 2.78027e-06 2.70865e-07
-9.48336e-07 2.60409e-06 1.01424e-07
-8.25866e-07 2.44982e-06 3.77481e-08
-2.12003e-07 4.40092e-06 -8.89042e-07
-7.09874e-08 4.2996e-06 -1.03412e-06
-4.51879e-08 3.55867e-06 -7.59478e-07
-6.9782e-07 4.11438e-06 -5.0611e-07
-3.05278e-06 3.8107e-06 1.20404e-06
-2.82523e-06 2.98584e-06 1.42632e-06
-3.23945e-06 3.58721e-06 1.39071e-06
-2.3345e-06 3.05814e-06 1.05982e-06
-1.97069e-06 2.80483e-06 7.58068e-07
-1.94901e-06 3.74684e-06 5.55658e-07
-2.87396e-06 3.28072e-06 1.30996e-06
-2.57092e-06 3.89743e-06 8.97144e-07
-1.48349e-07 7.40859e-07 2.42308e-07
1.65729e-07 8.17708e-07 -9.9051e-08
1.69662e-07 6.2879e-07 -2.06199e-07
-4.32645e-06 5.69434e-06 1.2332e-06
-4.60112e-06 5.00538e-06 1.38716e-06
-4.18754e-06 4.99042e-06 1.29579e-06
-4.02959e-06 5.27235e-06 1.01897e-06
-1.41161e-07 7.29801e-07 3.2389e-07
-1.31501e-06 2.27786e-06 6.92314e-07
-8.43362e-07 2.34408e-06 1.2576e-07
-9.53533e-07 2.44918e-06 1.93524e-07
-1.85687e-06 2.00225e-06 1.04056e-06
-1.218e-06 1.71981e-06 7.2145e-07
-1.84308e-06 1.70414e-06 1.19233e-06
-1.37388e-06 2.23122e-06 5.64683e-07
-9.57277e-07 3.36593e-06 -3.06364e-07
-8.97712e-07 1.95679e-06 4.3813e-07
-5.82794e-07 1.71558e-06 3.25256e-07
-5.49195e-07 1.98938e-06 3.70955e-09
-2.05647e-07 2.4016e-06 -4.53436e-07
-4.49339e-07 2.1625e-06 -1.06163e-07
-1.10563e-06 4.53828e-06 -3.50051e-07
-9.74273e-07 6.29799e-06 -1.13513e-06
-7.71097e-07 5.6014e-06 -1.20112e-06
-5.37519e-07 5.46314e-06 -1.2528e-06
-1.42452e-06 5.84851e-06 -6.53151e-07
-5.02392e-07 4.12473e-06 -7.21149e-07
-7.07662e-07 3.65755e-06 -3.99149e-07
-1.60116e-06 3.41892e-06 3.19234e-07
-9.07159e-07 3.53753e-06 -2.51476e-07
-9.79322e-07 3.00767e-06 9.57831e-09
-2.3927e-07 2.23297e-06 -4.14073e-07
-1.25552e-06 1.96856e-06 7.99225e-07
-1.85822e-06 2.5437e-06 9.69488e-07
-2.90039e-09 1.00326e-06 4.36695e-08
1.54242e-07 5.71101e-07 2.60716e-07
3.31762e-07 8.38405e-07 -1.48871e-07
-1.6629e-06 5.17983e-06 -3.62444e-07
-1.95753e-06 4.69678e-06 1.1838e-08
-2.18909e-06 5.14176e-06 2.52985e-08
-1.11965e-07 6.75683e-07 3.60884e-07
-4.3941e-07 9.29884e-07 5.50258e-07
-3.14813e-07 7.37237e-07 4.23988e-07
-1.38473e-07 1.59748e-06 -1.65931e-07
-6.23949e-07 1.40885e-06 3.71788e-07
-2.69555e-07 1.3184e-06 1.73492e-07
-3.52572e-07 1.05033e-06 4.45598e-07
-5.38678e-07 1.51755e-06 3.28236e-07
-8.00422e-08 1.70971e-06 -2.12726e-07
-4.53964e-07 1.82663e-06 1.34408e-07
1.72053e-07 1.24701e-06 -1.98993e-07
-2.34591e-06 4.1421e-06 7.09149e-07
-1.61193e-06 3.81731e-06 3.29499e-07
-1.73314e-06 3.46042e-06 5.20693e-07
-1.70468e-06 4.06828e-06 3.1874e-07
-1.31046e-06 4.6192e-06 -2.20539e-07
-1.44592e-06 3.15836e-06 3.19076e-07
-1.83055e-06 3.08037e-06 8.14024e-07
-9.49404e-07 3.67366e-06 -1.17083e-07
-1.20208e-06 3.81548e-06 8.27519e-08
-1.56356e-08 1.92787e-07 1.43619e-07
2.8171e-08 5.05863e-07 6.33806e-08
7.72023e-09 5.08902e-07 9.48925e-08
-6.27772e-08 5.39499e-07 2.46992e-07
9.88077e-08 5.67704e-07 -1.29799e-07
1.40452e-07 6.62872e-07 -2.5621e-07
7.03785e-08 2.58184e-07 -7.29533e-09
1.59109e-07 4.6497e-07 -2.22341e-07
3.63348e-08 3.88834e-07 -6.15758e-08
-1.14913e-06 5.60804e-06 -6.45463e-07
-1.50287e-06 4.81527e-06 -2.30827e-07
-1.46668e-06 5.5005e-06 -4.62006e-07
-7.68056e-07 4.72459e-06 -6.3529e-07
-2.28878e-07 5.04115e-06 -1.23943e-06
-1.76163e-07 4.94982e-06 -1.30682e-06
-7.45003e-07 5.05945e-06 -8.34872e-07
-9.02843e-07 5.62949e-06 -9.21271e-07
-1.22022e-06 6.32117e-06 -9.79536e-07
-8.87846e-07 5.74395e-06 -9.30126e-07
-2.04916e-06 5.13368e-06 5.1386e-08
-2.08926e-06 3.81986e-06 4.92835e-07
-2.27958e-06 3.49856e-06 8.89314e-07
-9.19355e-07 1.46752e-06 8.46618e-07
-5.5448e-07 1.36395e-06 3.27148e-07
-7.21351e-07 1.60554e-06 4.90834e-07
-7.98533e-07 1.69807e-06 3.98659e-07
-8.63037e-07 2.21845e-06 1.89867e-07
-6.8947e-07 1.70254e-06 2.95225e-07
-1.01277e-06 1.90659e-06 5.99513e-07
-8.39614e-07 1.84882e-06 4.10589e-07
-7.73609e-07 1.28904e-06 6.95662e-07
-4.98809e-07 2.08077e-06 -6.19898e-08
-7.40943e-07 2.87389e-06 -1.58876e-07
-9.1327e-07 6.57535e-06 -1.22483e-06
-5.81851e-07 5.95796e-06 -1.17389e-06
-1.47612e-06 6.1631e-06 -7.5293e-07
-5.24041e-07 2.93562e-06 -3.49583e-07
-1.2179e-07 2.88141e-06 -5.29573e-07
-6.35177e-07 2.33443e-06 -1.20249e-07
-9.28203e-07 3.10385e-06 -8.63169e-08
-6.29134e-07 2.55634e-06 -1.32689e-07
-2.24388e-08 4.10495e-06 -1.21978e-06
-8.03772e-07 3.01407e-06 -2.81097e-07
-5.37432e-07 2.64744e-06 -4.38089e-07
-3.66861e-07 1.77913e-06 -1.06827e-07
-3.28452e-07 6.24757e-07 6.65419e-07
-8.75527e-08 3.11221e-07 5.32944e-07
-1.64579e-07 7.73861e-07 4.83071e-07
2.81807e-07 1.59128e-06 -5.37652e-07
2.13052e-07 1.52541e-06 -5.0754e-07
3.11702e-08 2.04214e-06 -6.75071e-07
-8.2771e-08 2.0198e-06 -5.48827e-07
3.14061e-07 1.49228e-06 -5.04575e-07
1.67433e-07 1.16608e-06 -1.76818e-07
4.68082e-07 1.1726e-06 -5.14393e-07
-1.96079e-07 2.1769e-06 -3.89747e-07
-8.85284e-07 3.43768e-06 -4.22709e-07
-1.49123e-06 3.58148e-06 4.0967e-08
-6.83376e-07 5.02646e-06 -9.09555e-07
-4.58081e-07 4.41433e-06 -6.71435e-07
-7.88458e-07 4.57902e-06 -5.9685e-07
-9.86961e-07 4.62427e-06 -4.21025e-07
-1.06858e-06 1.66676e-06 8.39027e-07
-4.63443e-07 1.25618e-06 4.93123e-07
-2.4311e-07 1.5526e-06 6.42178e-08
-8.13382e-07 1.05708e-06 8.93816e-07
-3.70329e-06 5.79101e-06 8.7138e-07
-3.39356e-06 5.73102e-06 5.87342e-07
-2.95388e-06 5.57765e-06 4.24638e-07
-4.24524e-07 1.72865e-06 2.19921e-09
-2.86174e-06 3.61734e-06 1.31224e-06
-3.11774e-06 3.40498e-06 1.55176e-06
-2.71102e-06 2.82999e-06 1.50408e-06
-3.41356e-06 3.95324e-06 1.3739e-06
-2.22526e-06 4.97252e-06 2.34155e-07
-2.89541e-06 4.75298e-06 6.53578e-07
-3.50452e-06 4.50714e-06 1.08487e-06
-3.56419e-07 2.09808e-07 8.23694e-07
-7.46338e-07 7.94157e-07 8.09273e-07
-1.45931e-06 4.09192e-06 -2.35741e-07
-1.0777e-06 4.28173e-06 -6.30228e-07
-1.05012e-06 3.90159e-06 -5.27095e-07
-1.38065e-06 1.96405e-06 7.70596e-07
-1.23544e-06 1.67065e-06 9.66632e-07
-1.72592e-06 2.07781e-06 1.0785e-06
-5.42436e-07 3.04895e-06 -3.58324e-07
-1.69787e-07 2.30069e-06 -3.21744e-07
-1.0049e-06 2.68978e-06 1.3433e-07
-7.56634e-07 1.88476e-06 2.16384e-07
-6.92218e-07 2.45425e-06 5.85914e-10
-1.20715e-06 2.44033e-06 1.95312e-07
-1.21774e-06 1.99109e-06 4.66411e-07
-1.58115e-06 2.4232e-06 5.68594e-07
-1.3046e-06 3.00558e-06 1.25935e-07
-1.13918e-06 5.05079e-06 -6.51327e-07
-1.42665e-06 5.39712e-06 -5.68561e-07
-2.12794e-06 4.96058e-06 1.07243e-07
1.347e-08 -2.13584e-08 3.01575e-07
-1.26655e-07 1.6822e-07 5.91171e-07
-9.1209e-08 1.37403e-07 4.1183e-07
-2.79959e-06 5.21837e-06 4.20977e-07
-1.85859e-06 5.34211e-06 -1.06981e-07
-3.08362e-07 5.04539e-06 -1.03852e-06
-2.23279e-06 5.67827e-06 -1.29427e-07
-1.88808e-06 5.79448e-06 -3.39749e-07
-2.3429e-06 5.82637e-06 -5.0469e-08
-1.57407e-06 5.22004e-06 -3.57661e-07
-2.67754e-06 5.49984e-06 3.66677e-07
-2.01578e-06 5.81334e-06 -3.24223e-07
-1.97156e-06 6.17665e-06 -4.62454e-07
-1.59704e-08 3.72948e-06 -1.22943e-06
1.79053e-07 3.02365e-06 -1.17987e-06
1.02933e-07 3.66628e-06 -1.23759e-06
-3.49384e-07 3.62785e-06 -7.28606e-07
-3.19841e-06 6.08107e-06 3.75105e-07
-2.82901e-06 6.14872e-06 5.61212e-08
-2.99597e-06 6.63074e-06 4.53249e-08
-2.59709e-06 5.63683e-06 1.69619e-07
-3.18225e-07 3.78837e-06 -1.04172e-06
3.9317e-08 3.1455e-06 -1.17714e-06
-3.4195e-07 3.25455e-06 -7.45757e-07
-1.38671e-06 5.25146e-06 -4.07217e-07
-1.08491e-07 4.05718e-07 3.05249e-07
-1.40658e-07 5.30221e-07 3.57195e-07
-9.94349e-08 2.39656e-07 2.12215e-07
-5.9603e-08 3.20999e-07 1.64982e-07
-2.30904e-07 4.0039e-07 3.55565e-07
-8.58085e-08 1.70565e-07 1.97221e-07
-1.38543e-07 2.13583e-07 2.57668e-07
2.31361e-08 4.29959e-08 1.22284e-07
-2.95624e-06 2.72083e-06 1.76269e-06
-4.61216e-07 5.89573e-06 -1.21884e-06
-7.70698e-09 6.43122e-08 1.30944e-07
-3.84621e-06 4.25454e-06 1.5131e-06
-2.86762e-06 3.42987e-06 1.35968e-06
-3.13637e-06 4.44319e-06 1.07149e-06
-1.4924e-07 5.66836e-07 3.3109e-07
3.28242e-07 7.30523e-07 -4.04683e-07
1.82883e-07 8.60943e-07 -2.98858e-07
3.93409e-07 9.66621e-07 -5.07876e-07
-3.26288e-06 2.9127e-06 1.77785e-06
-2.62231e-06 2.79871e-06 1.40506e-06
-1.58886e-07 1.62073e-07 4.38309e-07
-8.44587e-08 8.3317e-08 2.3943e-07
-2.82064e-07 2.8427e-07 5.0272e-07
-2.61189e-07 2.00359e-07 4.92704e-07
-2.91898e-07 4.65419e-07 5.03956e-07
-1.15764e-06 4.69131e-06 -4.3663e-07
1.97624e-07 1.30233e-07 -3.73451e-08
-4.03412e-07 9.97284e-07 4.90523e-07
-2.11762e-06 2.34755e-06 1.46312e-06
-2.09796e-06 2.79608e-06 1.1015e-06
-2.1922e-06 3.12755e-06 1.02181e-06
-2.41013e-06 3.60666e-06 8.38248e-07
-3.99007e-07 1.73943e-06 -4.95052e-08
1.96102e-07 2.24823e-06 -7.09354e-07
-2.54325e-08 1.65139e-06 -3.40054e-07
-4.41464e-07 2.24616e-06 -1.79952e-07
7.27168e-08 5.67149e-10 3.23867e-08
-8.97523e-09 -5.80347e-08 2.18499e-07
3.5851e-08 -1.21873e-07 8.4199e-08
5.142e-13 5.142e-13 5.142e-13
5.142e-13 5.142e-13 5.142e-13
5.142e-13 5.142e-13 5.142e-13
1.65278e-07 -1.02366e-08 -7.6142e-08
2.41089e-07 6.97047e-08 -3.33562e-08
-4.45897e-07 1.26576e-06 3.62033e-07
-4.07517e-07 8.39595e-07 5.70207e-07
-1.56987e-07 1.24061e-06 -1.26952e-07
-2.21322e-07 1.2369e-06 1.3468e-07
-2.31148e-07 1.05125e-06 2.86205e-07
-2.52304e-08 8.83208e-07 1.13209e-07
-2.64177e-06 5.00727e-06 4.25915e-07
-3.29509e-06 5.66159e-06 6.31733e-07
-3.10185e-06 4.89849e-06 7.98112e-07
-3.4861e-06 5.05752e-06 9.42291e-07
-2.62867e-06 5.98121e-06 6.72434e-08
-6.55799e-07 7.78454e-07 8.65357e-07
-1.06491e-06 1.14771e-06 1.00008e-06
-1.19259e-06 1.23571e-06 1.06223e-06
-1.26332e-06 1.48449e-06 1.13744e-06
-1.24079e-06 1.79242e-06 9.3239e-07
-4.89553e-07 1.83718e-06 2.03363e-08
-6.5971e-08 2.00842e-06 -4.49391e-07
-4.46609e-07 1.46759e-06 2.32447e-07
-7.4233e-07 4.33294e-06 -8.29433e-07
-1.0222e-06 4.96167e-06 -7.80365e-07
-1.38853e-06 4.6102e-06 -5.61361e-07
-1.04665e-06 4.88708e-06 -8.85216e-07
-1.57692e-06 5.31298e-06 -5.09144e-07
-2.93035e-06 2.6287e-06 1.74676e-06
-2.35804e-06 2.08278e-06 1.49768e-06
-2.83896e-06 2.47984e-06 1.79878e-06
-8.54107e-07 1.0504e-06 9.37053e-07
-3.70229e-07 1.2713e-06 2.16576e-07
-5.05641e-07 2.72771e-06 -4.31182e-07
-2.13627e-07 1.86233e-06 -3.05105e-07
-4.88788e-07 2.03064e-06 -4.14006e-08
-2.97847e-07 2.15388e-06 -3.47059e-07
-7.38283e-07 1.94123e-06 3.13705e-07
-9.58245e-07 2.47492e-06 2.9171e-07
-1.6991e-08 1.8631e-06 -5.52992e-07
-1.3658e-08 1.65135e-06 -3.90357e-07
-7.16198e-07 1.63718e-06 4.61775e-07
-8.02475e-07 2.03379e-06 2.11093e-07
-7.90089e-07 4.81309e-06 -7.39139e-07
-2.56446e-06 2.88119e-06 1.30858e-06
-4.80005e-07 4.35127e-06 -1.15209e-06
-5.58007e-07 5.00844e-06 -1.19598e-06
-8.12116e-08 3.10545e-06 -1.03271e-06
1.44944e-07 2.55715e-06 -1.08006e-06
1.24848e-07 2.28738e-06 -8.20466e-07
-6.50973e-08 -9.88872e-09 1.51033e-07
-5.11534e-09 -7.45698e-08 7.78951e-08
-2.11459e-07 1.56126e-07 3.33344e-07
-2.34545e-08 2.90701e-08 1.54144e-08
-1.02276e-07 -3.49524e-08 2.1982e-07
-4.81213e-08 7.06294e-08 1.01726e-07
-2.35064e-06 3.38103e-06 9.26152e-07
-1.8453e-06 4.44831e-06 1.72811e-07
-2.74576e-06 3.40529e-06 1.24984e-06
-3.41338e-06 3.85777e-06 1.28583e-06
3.04436e-07 2.60124e-06 -1.13887e-06
-1.2957e-08 2.29869e-06 -6.52707e-07
4.91952e-07 1.2393e-06 -6.2976e-07
2.74828e-07 1.13601e-06 -4.81939e-07
2.6474e-07 1.58404e-06 -6.53563e-07
8.41518e-08 1.38029e-06 -4.80373e-07
-1.55322e-07 1.61808e-06 -2.85524e-07
7.40715e-08 9.86126e-07 -2.7529e-07
3.54971e-07 2.11942e-06 -9.46103e-07
6.75626e-07 1.5761e-06 -8.91034e-07
2.90415e-07 1.80094e-06 -6.85785e-07
-1.77918e-06 2.50677e-06 1.10196e-06
-1.60021e-06 1.83606e-06 1.34054e-06
-1.32916e-06 2.01508e-06 1.00709e-06
-1.6e-06 2.26194e-06 1.0329e-06
5.64626e-07 1.64386e-06 -8.08766e-07
-3.63764e-07 1.65125e-06 -3.0365e-09
-1.66802e-06 6.11661e-06 -5.08452e-07
-2.03213e-06 6.62837e-06 -6.56299e-07
-1.4909e-06 2.57562e-06 7.33925e-07
-1.04685e-06 2.0283e-06 6.99991e-07
-2.18874e-06 6.2651e-06 -3.27495e-07
-1.32818e-06 6.1688e-06 -7.66058e-07
-3.75695e-06 3.62132e-06 1.70816e-06
2.91415e-07 1.72744e-06 -6.59627e-07
-1.21763e-07 1.652e-06 -2.3188e-07
4.47952e-07 1.83709e-06 -9.35335e-07
2.53712e-07 2.37766e-06 -1.01009e-06
1.30051e-07 3.01183e-09 -1.7341e-08
2.09949e-07 4.55755e-08 -2.26554e-08
5.142e-13 5.142e-13 5.142e-13
9.46114e-09 4.78864e-08 7.40391e-09
2.42932e-07 3.78007e-07 -2.92466e-07
7.7745e-08 1.12708e-07 -1.04712e-07
1.39144e-07 1.65268e-07 -1.47796e-07
2.46669e-07 1.1819e-07 -1.59956e-07
-2.94966e-07 2.91545e-06 -6.24568e-07
-1.1102e-06 1.39025e-06 1.00373e-06
-1.32526e-06 3.61176e-06 -1.57835e-07
-1.63352e-06 4.19677e-06 -2.14225e-07
-1.9109e-06 3.74046e-06 3.46245e-07
-7.04675e-07 1.21536e-06 7.07726e-07
-1.66484e-06 1.71339e-06 1.29068e-06
1.08973e-07 2.47835e-07 -1.10102e-07
1.56271e-07 2.98959e-07 -2.28088e-07
5.42269e-08 1.95194e-07 -1.8476e-07
1.66749e-07 5.9196e-07 -3.41028e-07
4.35215e-08 1.98897e-07 -1.05187e-07
1.27385e-07 1.92195e-07 -2.29959e-07
2.20517e-07 4.5115e-07 -4.31397e-07
-2.4218e-06 6.96459e-06 -5.29482e-07
-1.27034e-06 6.05931e-06 -8.5996e-07
-2.02879e-06 6.44098e-06 -5.09541e-07
1.46138e-07 2.06972e-06 -8.18396e-07
-4.23773e-07 2.96889e-06 -4.34127e-07
-5.08176e-07 4.18131e-06 -8.22709e-07
-3.83022e-06 4.16637e-06 1.4795e-06
-4.15302e-07 5.14051e-07 8.2518e-07
-7.71567e-07 7.25487e-07 1.10124e-06
-4.38032e-07 8.06784e-07 6.82189e-07
-5.05621e-07 8.74726e-07 7.63112e-07
-4.03122e-06 4.66594e-06 1.31774e-06
-3.52095e-06 3.08667e-06 1.81742e-06
-4.73224e-07 3.7331e-06 -6.98421e-07
5.02317e-07 2.03045e-06 -1.06907e-06
-2.84022e-06 7.43549e-06 -5.69727e-07
-2.42474e-06 6.85664e-06 -4.37189e-07
-2.96275e-06 6.75943e-06 -4.15342e-08
-3.64085e-06 4.91727e-06 1.13834e-06
-2.19827e-06 2.27943e-06 1.38033e-06
-3.7085e-07 5.64433e-07 4.9439e-07
6.45131e-09 7.2175e-07 -1.02358e-07
-9.07718e-08 8.13382e-07 1.29306e-07
-2.41488e-07 6.83352e-07 4.00638e-07
-1.59518e-07 5.98735e-07 3.06425e-07
-2.84791e-06 6.59362e-06 -1.16974e-07
-2.78975e-06 4.27967e-06 8.86694e-07
-3.32175e-06 4.30612e-06 1.36618e-06
-6.86001e-07 1.10395e-06 7.97535e-07
-9.14695e-07 1.17783e-06 9.73638e-07
-6.67628e-07 8.20502e-07 8.75747e-07
-3.24504e-07 1.13721e-06 4.21981e-07
-9.28599e-07 1.71852e-06 6.92167e-07
5.62046e-07 3.2081e-07 -3.84885e-07
5.49623e-07 5.48474e-07 -5.91466e-07
3.16508e-07 5.33501e-07 -3.26516e-07
-1.16348e-06 7.89288e-07 1.26052e-06
-1.27611e-06 1.00974e-06 1.31172e-06
-7.60915e-07 1.5331e-06 6.25007e-07
-1.21944e-06 1.52099e-06 1.12536e-06
-9.54665e-07 1.55449e-06 8.81644e-07
-6.54042e-07 1.24874e-06 6.26291e-07
-1.93344e-07 2.37143e-06 -5.79301e-07
9.00416e-08 1.51775e-06 -3.48584e-07
-3.54068e-07 2.68928e-06 -5.17202e-07
-3.98899e-07 2.44103e-06 -4.12515e-07
-3.90421e-07 2.97909e-06 -8.30375e-07
-3.5185e-06 6.69886e-06 2.83345e-07
8.51293e-08 -1.05162e-07 3.93607e-08
7.93642e-08 -1.81426e-07 7.28798e-08
2.65302e-07 -1.26923e-07 -5.16126e-08
9.69231e-08 -6.67551e-08 2.35222e-09
-2.46783e-07 2.92235e-06 -5.79119e-07
5.04204e-07 6.04892e-07 -2.18994e-07
3.47479e-07 8.06493e-07 -1.76351e-08
3.33006e-08 9.99003e-07 1.11118e-07
3.36441e-07 1.2325e-06 -3.2264e-07
6.37407e-07 9.82232e-07 -5.51278e-07
-1.54675e-06 1.65411e-06 1.2165e-06
-5.21662e-09 -7.73425e-08 9.18846e-08
3.59483e-08 -6.90113e-08 1.11373e-08
-1.79372e-06 1.72917e-06 1.59511e-06
-1.28038e-06 1.20605e-06 1.30896e-06
3.24812e-07 1.95782e-07 -1.87284e-07
-2.01881e-06 5.53366e-06 -1.27988e-07
-2.17864e-06 6.17632e-06 -2.18992e-07
-3.38221e-06 7.33407e-06 -3.03567e-08
-2.84273e-07 1.04524e-06 3.36456e-07
-4.57455e-07 1.45363e-06 3.43285e-07
-4.74387e-07 1.796e-06 8.30736e-09
-7.48261e-07 3.28079e-06 -5.26195e-07
-3.11233e-07 4.89313e-06 -1.28942e-06
-1.93107e-07 2.34427e-06 -7.26367e-07
-1.75612e-08 2.50576e-06 -9.56234e-07
5.142e-13 5.142e-13 5.142e-13
6.12331e-08 2.71826e-08 -4.91312e-09
2.38573e-08 5.89047e-08 9.40211e-08
-2.2978e-06 2.01809e-06 1.60922e-06
-2.7967e-06 2.3168e-06 1.79249e-06
-4.36818e-06 5.4046e-06 1.13239e-06
-3.08061e-06 4.87517e-06 8.34987e-07
-1.82835e-06 5.84714e-06 -5.84514e-07
-1.15862e-06 5.60483e-06 -9.0138e-07
-1.82776e-06 2.04842e-06 1.2752e-06
-5.29596e-07 3.80659e-06 -7.6467e-07
9.97792e-08 -4.96511e-08 5.30042e-08
7.74984e-08 3.4989e-06 -9.08995e-07
-3.43575e-06 3.75099e-06 1.46095e-06
-2.13276e-06 5.06902e-06 1.1207e-07